ITEM: TIMESTEP
49125600
ITEM: NUMBER OF ATOMS
3060
ITEM: BOX BOUNDS pp pp mm
0.0000000000000000e+00 2.1394294200000001e+01
0.0000000000000000e+00 2.1394294200000001e+01
-5.3491084073550004e-03 5.3485735499999997e+01
ITEM: ATOMS id type x y z vx vy vz c_clusts c_atom_pe c_atom_ke c_atom_coord
1 1 0 0 0 0 0 0 1 -3.33824 0 2
2 1 1.78286 1.78286 0 0 0 0 1 -3.34845 0 2
3 1 0.891429 0.891429 0.891429 0 0 0 1 -7.02102 0 4
4 1 0.92474 2.70733 2.67887 -2.7961 10.5591 -3.36762 1 -7.37767 0.0813221 4
5 1 2.72882 0.934536 2.70748 -3.28413 0.202904 -10.3576 1 -7.35859 0.0735128 4
6 1 2.67429 2.67429 0.891429 0 0 0 1 -6.99938 0 4
7 1 3.56572 0 0 0 0 0 1 -3.3496 0 2
8 1 3.5924 1.82096 1.82775 -3.40116 -3.15796 0.276131 1 -7.31369 0.0134549 4
9 1 0 3.56572 0 0 0 0 1 -3.33784 0 2
10 1 1.81221 3.59682 1.78567 -1.28077 -5.02576 4.39277 1 -7.35974 0.028753 4
11 1 3.56572 3.56572 0 0 0 0 1 -3.3238 0 2
12 1 1.77931 1.78566 3.57143 5.41225 1.55387 -0.594997 1 -7.31143 0.0199556 4
13 1 3.56683 3.55649 3.56768 4.88129 10.9479 0.549506 1 -7.26952 0.0896197 4
292 1 1.79587 0.00968006 1.77892 5.33631 -0.933388 -3.27153 1 -7.3084 0.0249284 4
56 1 -0.00662842 3.59121 3.58628 -3.15838 4.84672 -1.10434 1 -7.38042 0.0215893 4
55 1 0.0352919 1.79612 1.78257 -0.248992 -0.414659 1.30849 1 -7.32321 0.00121129 4
291 1 3.5694 0.0469409 3.58611 -4.66097 1.04267 -11.529 1 -7.31237 0.09693 4
350 1 0.00909304 0.00577449 3.60549 0.502456 -1.93038 -10.3245 1 -7.36798 0.0688239 4
14 1 5.34857 1.78286 0 0 0 0 1 -3.33212 0 2
15 1 4.45714 0.891429 0.891429 0 0 0 1 -6.97592 0 4
16 1 4.49417 2.72992 2.67779 -1.02985 -9.85367 8.5774 1 -7.3211 0.106888 4
17 1 6.28459 0.876658 2.63469 -0.79087 -3.8391 7.18701 1 -7.28313 0.0417133 4
18 1 6.24 2.67429 0.891429 0 0 0 1 -7.03746 0 4
19 1 7.13143 0 0 0 0 0 1 -3.33443 0 2
20 1 7.15501 1.7666 1.74996 -4.38882 -1.50078 2.95033 1 -7.39483 0.0188088 4
21 1 8.02286 0.891429 0.891429 0 0 0 1 -7.00994 0 4
22 1 8.01531 2.62554 2.66261 -10.5784 -4.53185 2.23894 1 -7.36787 0.0855549 4
23 1 5.36437 3.59459 1.75893 -1.46184 -0.772429 5.76568 1 -7.38399 0.0223928 4
24 1 7.13143 3.56572 0 0 0 0 1 -3.30849 0 2
25 1 5.35753 1.77845 3.57679 5.34465 -6.06103 -4.71067 1 -7.26553 0.0544572 4
26 1 7.11511 3.5451 3.54595 0.616245 -0.202233 -5.2609 1 -7.38099 0.0174888 4
306 1 7.17348 0.033815 3.55276 8.69133 4.46302 -9.49562 1 -7.31578 0.115538 4
28 1 8.91429 1.78286 0 0 0 0 1 -3.31989 0 2
29 1 9.81555 0.897938 2.67345 2.32019 -5.07024 -1.57164 1 -7.36724 0.0208891 4
30 1 9.80572 2.67429 0.891429 0 0 0 1 -6.96232 0 4
31 1 10.6971 0 0 0 0 0 1 -3.34279 0 2
32 1 10.7305 1.77161 1.78329 -3.13578 -5.58637 4.92299 1 -7.35131 0.0406298 4
33 1 12.48 1.78286 0 0 0 0 1 -3.3489 0 2
34 1 11.5886 0.891429 0.891429 0 0 0 1 -7.03101 0 4
35 1 11.5842 2.64643 2.67824 -5.01392 2.01626 -3.49023 1 -7.34199 0.02576 4
36 1 8.89006 3.57947 1.77052 6.06475 -0.994107 2.0142 1 -7.28719 0.0260339 4
37 1 10.6971 3.56572 0 0 0 0 1 -3.33247 0 2
38 1 12.4895 3.56039 1.77609 -1.39587 -4.64007 -8.11635 1 -7.34035 0.0556162 4
39 1 8.94313 1.76387 3.52317 -0.807273 1.37204 -0.914606 1 -7.40014 0.002098 4
40 1 12.4625 1.78014 3.62345 -9.62328 8.36385 -2.86616 1 -7.31071 0.106296 4
41 1 10.6857 3.54791 3.56321 -5.60717 -3.51846 2.79107 1 -7.32844 0.0321234 4
319 1 10.7312 0.021399 3.57198 3.35318 -5.17346 2.4851 1 -7.33284 0.0275015 4
42 1 13.3927 0.897032 2.67647 3.66921 -4.11267 -2.92059 1 -7.26798 0.0242167 4
43 1 13.3714 2.67429 0.891429 0 0 0 1 -7.02977 0 4
44 1 14.2629 0 0 0 0 0 1 -3.33435 0 2
45 1 14.2734 1.82682 1.79556 -6.48376 -3.9144 -4.18451 1 -7.36535 0.0466022 4
46 1 16.0457 1.78286 0 0 0 0 1 -3.31133 0 2
47 1 15.1543 0.891429 0.891429 0 0 0 1 -6.99323 0 4
48 1 15.167 2.70406 2.66511 2.47871 -0.136804 5.19913 1 -7.3625 0.0206606 4
49 1 16.9409 0.905708 2.67054 -8.21888 0.454286 1.70439 1 -7.32104 0.0439814 4
50 1 16.9371 2.67429 0.891429 0 0 0 1 -7.00785 0 4
51 1 14.2629 3.56572 0 0 0 0 1 -3.33468 0 2
52 1 16.0342 3.56459 1.76982 -6.86268 5.46776 -1.92617 1 -7.38334 0.0502317 4
53 1 16.0906 1.82567 3.579 -11.7203 2.90047 -2.50478 1 -7.37283 0.094641 4
54 1 14.2467 3.54988 3.58866 4.72303 7.23797 -3.80044 1 -7.28774 0.0554821 4
336 1 14.3038 0.0258894 3.59969 0.516262 -7.05902 -3.11293 1 -7.28398 0.0372128 4
57 1 17.8286 0 0 0 0 0 1 -3.32683 0 2
58 1 17.828 1.765 1.7723 -3.86776 1.73688 -2.17937 1 -7.37415 0.0141452 4
59 1 19.6114 1.78286 0 0 0 0 1 -3.33052 0 2
60 1 18.72 0.891429 0.891429 0 0 0 1 -7.05127 0 4
61 1 18.659 2.68655 2.67229 0.346365 7.56368 1.4525 1 -7.33626 0.0369964 4
62 1 20.509 0.897628 2.67991 -0.858226 5.46894 -8.29611 1 -7.34213 0.0619135 4
63 1 20.5029 2.67429 0.891429 0 0 0 1 -6.99277 0 4
64 1 17.8286 3.56572 0 0 0 0 1 -3.33623 0 2
65 1 19.5818 3.57963 1.78016 4.33772 -0.913972 2.34184 1 -7.27196 0.0156449 4
66 1 19.6412 1.82702 3.55411 -0.543738 4.38229 -0.341106 1 -7.3173 0.0122098 4
67 1 17.8133 3.58433 3.55782 8.64408 -1.99061 3.89651 1 -7.38656 0.0584242 4
68 1 19.6238 0.0193087 1.76133 -2.20862 2.27498 -2.1201 1 -7.37784 0.00905528 4
349 1 17.856 0.021346 3.58037 -1.91359 9.58848 -6.29522 1 -7.25868 0.084171 4
69 1 1.78286 5.34857 0 0 0 0 1 -3.32814 0 2
70 1 0.891429 4.45714 0.891429 0 0 0 1 -7.01886 0 4
71 1 0.88569 6.26502 2.66856 -8.33637 -12.4154 -11.3045 1 -7.36281 0.218738 4
72 1 2.66038 4.50248 2.656 -2.21009 -13.5106 0.487769 1 -7.34085 0.116804 4
73 1 2.67429 6.24 0.891429 0 0 0 1 -7.0007 0 4
74 1 3.55826 5.35916 1.78939 -8.44504 -1.33744 4.81181 1 -7.31936 0.0599153 4
75 1 0 7.13143 0 0 0 0 1 -3.34592 0 2
76 1 1.79147 7.13787 1.80964 2.21471 2.70253 -3.14417 1 -7.33036 0.0137521 4
77 1 0.891429 8.02286 0.891429 0 0 0 1 -7.02069 0 4
78 1 2.65198 7.98688 2.69928 -3.28616 -1.3315 -0.925487 1 -7.35169 0.00835809 4
79 1 3.56572 7.13143 0 0 0 0 1 -3.33227 0 2
80 1 1.78564 5.38143 3.58142 0.678916 -11.421 3.02317 1 -7.31103 0.0871642 4
81 1 3.5772 7.12909 3.55632 2.97397 -3.55129 -3.77985 1 -7.42065 0.0222477 4
128 1 0.00990865 5.35803 1.78108 -0.437511 -6.11027 -1.7837 1 -7.38935 0.0253379 4
82 1 0.0357862 7.14678 3.57546 7.17279 -5.55496 -5.23315 1 -7.34929 0.0682754 4
83 1 5.34857 5.34857 0 0 0 0 1 -3.32076 0 2
84 1 4.45714 4.45714 0.891429 0 0 0 1 -7.04292 0 4
85 1 4.46651 6.28611 2.70248 3.00816 -2.02146 -1.67665 1 -7.30192 0.00992552 4
86 1 6.24589 4.44466 2.70033 4.60823 3.83956 -4.4736 1 -7.38799 0.0348503 4
87 1 6.24 6.24 0.891429 0 0 0 1 -6.98913 0 4
88 1 7.11258 5.32227 1.80721 3.4972 4.39824 1.06476 1 -7.34026 0.0203587 4
89 1 8.02286 4.45714 0.891429 0 0 0 1 -7.02167 0 4
90 1 8.01492 6.25088 2.60689 -0.916301 5.06638 -3.65382 1 -7.26964 0.0248088 4
91 1 5.36468 7.13545 1.77641 -4.99328 -2.2943 -0.750284 1 -7.34424 0.0191456 4
92 1 4.45714 8.02286 0.891429 0 0 0 1 -7.01349 0 4
93 1 6.33417 8.02271 2.68587 -3.88509 -3.83326 9.63982 1 -7.26009 0.0763804 4
94 1 7.13143 7.13143 0 0 0 0 1 -3.35299 0 2
95 1 8.02286 8.02286 0.891429 0 0 0 1 -7.00115 0 4
96 1 5.34972 5.31775 3.62104 0.945397 1.20915 3.76595 1 -7.33095 0.0102938 4
97 1 7.13736 7.13543 3.56956 4.48335 3.372 -4.90216 1 -7.31493 0.0345459 4
98 1 8.91429 5.34857 0 0 0 0 1 -3.34593 0 2
99 1 9.83826 4.45998 2.66379 5.62607 -4.40463 -1.1551 1 -7.31367 0.0326075 4
100 1 9.80572 6.24 0.891429 0 0 0 1 -7.01573 0 4
101 1 10.72 5.36639 1.78398 6.1208 -3.13908 3.64758 1 -7.37249 0.0377333 4
102 1 12.48 5.34857 0 0 0 0 1 -3.32287 0 2
103 1 11.5886 4.45714 0.891429 0 0 0 1 -6.99864 0 4
104 1 11.5894 6.2236 2.66807 1.73874 1.66071 0.89448 1 -7.32124 0.00409634 4
105 1 8.88707 7.13432 1.76343 11.7937 2.98772 -7.25489 1 -7.39026 0.124891 4
106 1 9.76747 7.98411 2.6767 -2.14259 0.862176 1.44367 1 -7.36106 0.00461731 4
107 1 10.6971 7.13143 0 0 0 0 1 -3.32491 0 2
108 1 12.477 7.16099 1.74232 1.83478 -3.08861 5.82844 1 -7.30849 0.0291772 4
109 1 11.5886 8.02286 0.891429 0 0 0 1 -7.05378 0 4
110 1 8.91162 5.35036 3.54707 -5.20128 0.919817 -10.087 1 -7.26553 0.080696 4
111 1 12.5258 5.31633 3.54708 -2.03592 0.893257 3.22015 1 -7.36243 0.00953074 4
112 1 10.6914 7.07092 3.54554 0.23928 1.54502 -0.695699 1 -7.33167 0.00182267 4
113 1 13.3642 4.49511 2.66806 -1.93138 -3.26641 -6.1432 1 -7.31726 0.0324524 4
114 1 13.3714 6.24 0.891429 0 0 0 1 -6.92115 0 4
115 1 14.3164 5.30905 1.8084 -2.36562 0.0717898 8.71688 1 -7.34053 0.0507808 4
116 1 16.0457 5.34857 0 0 0 0 1 -3.35087 0 2
117 1 15.1543 4.45714 0.891429 0 0 0 1 -7.03897 0 4
118 1 15.1706 6.19213 2.67962 1.29792 4.38675 -7.77536 1 -7.2913 0.0506558 4
119 1 16.9248 4.45152 2.66866 2.128 3.18491 -7.53673 1 -7.35028 0.0444875 4
120 1 16.9371 6.24 0.891429 0 0 0 1 -7.01273 0 4
121 1 13.3792 7.99163 2.63286 1.23845 -3.10873 8.12923 1 -7.37071 0.0481025 4
122 1 14.2629 7.13143 0 0 0 0 1 -3.31862 0 2
123 1 16.0771 7.14851 1.75193 2.7212 -4.50528 -4.58589 1 -7.29324 0.0303326 4
124 1 15.1543 8.02286 0.891429 0 0 0 1 -7.02399 0 4
125 1 16.965 8.03072 2.66868 3.03333 8.33383 11.9407 1 -7.37488 0.137701 4
126 1 16.1125 5.32098 3.5512 2.05553 -4.9756 0.407673 1 -7.27588 0.0181425 4
127 1 14.294 7.09767 3.54006 -5.68689 4.01529 -2.35445 1 -7.36557 0.0336152 4
129 1 17.824 5.36241 1.78822 0.501082 -3.91314 0.807312 1 -7.3392 0.0100929 4
130 1 19.6114 5.34857 0 0 0 0 1 -3.32579 0 2
131 1 18.72 4.45714 0.891429 0 0 0 1 -7.01388 0 4
132 1 18.6982 6.24414 2.70121 -2.03705 1.98445 -3.20285 1 -7.38573 0.011419 4
133 1 20.5195 4.48791 2.71195 1.87189 -0.89843 -4.02976 1 -7.36409 0.0127909 4
134 1 20.5029 6.24 0.891429 0 0 0 1 -6.99144 0 4
135 1 17.8286 7.13143 0 0 0 0 1 -3.31012 0 2
136 1 19.5607 7.11711 1.7808 -1.79438 -4.98645 5.44984 1 -7.29099 0.0359671 4
137 1 18.72 8.02286 0.891429 0 0 0 1 -7.00373 0 4
138 1 20.5318 8.01243 2.6906 0.619392 3.73545 -3.15957 1 -7.27822 0.0151375 4
139 1 19.6171 5.37596 3.56031 -3.16065 -3.03143 -1.51565 1 -7.3167 0.0133675 4
140 1 17.8055 7.12641 3.54803 0.346696 -2.50753 -0.170276 1 -7.31698 0.00400651 4
141 1 1.78286 8.91429 0 0 0 0 1 -3.33874 0 2
142 1 0.892639 9.80793 2.67971 0.472953 5.85931 -9.28669 1 -7.33706 0.0751878 4
143 1 2.67429 9.80572 0.891429 0 0 0 1 -7.05362 0 4
144 1 3.54667 8.92217 1.76241 3.34891 -4.36435 3.02049 1 -7.32978 0.024515 4
145 1 0 10.6971 0 0 0 0 1 -3.33202 0 2
146 1 1.81525 10.6902 1.75696 0.267811 -0.0903332 6.09768 1 -7.31707 0.0231926 4
147 1 1.78286 12.48 0 0 0 0 1 -3.31502 0 2
148 1 0.891429 11.5886 0.891429 0 0 0 1 -7.00921 0 4
149 1 2.74674 11.5875 2.68492 -0.865401 -1.27077 -3.94017 1 -7.28478 0.0111344 4
150 1 3.56572 10.6971 0 0 0 0 1 -3.33309 0 2
151 1 3.57849 12.4988 1.79296 12.0222 -1.98051 -0.732375 1 -7.38175 0.0927371 4
152 1 1.74708 8.88792 3.57018 -5.00401 -0.403099 0.546975 1 -7.34282 0.015873 4
153 1 1.78379 12.4818 3.52768 8.02653 0.0280079 2.44617 1 -7.33963 0.0438248 4
154 1 3.59039 10.6843 3.64121 0.56215 -1.90022 -0.385092 1 -7.35299 0.00253648 4
205 1 0.021523 8.88733 1.77539 7.79864 -5.71945 -1.6322 1 -7.31158 0.0598743 4
204 1 0.0274687 12.5029 1.75508 12.8013 -1.76385 -1.01066 1 -7.38414 0.104571 4
155 1 5.34857 8.91429 0 0 0 0 1 -3.34026 0 2
156 1 4.46899 9.78069 2.68954 5.53825 4.48417 -4.66255 1 -7.3115 0.045138 4
157 1 6.24 9.80572 0.891429 0 0 0 1 -7.00184 0 4
158 1 7.18328 8.94599 1.81039 4.67767 0.302795 -3.184 1 -7.32133 0.0199862 4
159 1 8.06028 9.83779 2.68939 -7.62411 1.07473 2.1929 1 -7.36365 0.0398919 4
160 1 5.35099 10.6917 1.76458 -3.02003 7.80847 -3.38902 1 -7.34638 0.0507764 4
161 1 5.34857 12.48 0 0 0 0 1 -3.33533 0 2
162 1 4.45714 11.5886 0.891429 0 0 0 1 -7.01408 0 4
163 1 6.26209 11.582 2.65684 -2.5699 -2.42609 3.74851 1 -7.30671 0.0165202 4
164 1 7.13143 10.6971 0 0 0 0 1 -3.3339 0 2
165 1 7.1674 12.5089 1.76552 -0.996864 -1.25904 -3.81127 1 -7.34915 0.0106464 4
166 1 8.02286 11.5886 0.891429 0 0 0 1 -7.0304 0 4
167 1 5.38968 8.93367 3.57079 -5.72859 0.75057 0.280883 1 -7.2722 0.0208257 4
168 1 5.37902 12.4722 3.56187 10.7681 3.19985 -2.66436 1 -7.30797 0.0829627 4
169 1 7.11476 10.6959 3.59932 -1.64789 -6.26423 -9.93263 1 -7.32065 0.0875214 4
170 1 8.91429 8.91429 0 0 0 0 1 -3.31126 0 2
171 1 9.80572 9.80572 0.891429 0 0 0 1 -6.93371 0 4
172 1 10.6986 8.8642 1.79825 -1.43389 2.74865 -4.26384 1 -7.31827 0.0172981 4
173 1 12.48 8.91429 0 0 0 0 1 -3.32462 0 2
174 1 11.5456 9.77757 2.6439 0.783613 0.194437 -3.11026 1 -7.34456 0.00642691 4
175 1 8.86916 10.7388 1.78173 -4.07851 -1.94089 0.444696 1 -7.33187 0.0128214 4
176 1 8.91429 12.48 0 0 0 0 1 -3.34092 0 2
177 1 9.75647 11.6045 2.71149 -2.30573 -0.789015 -7.99752 1 -7.31588 0.0435072 4
178 1 10.6971 10.6971 0 0 0 0 1 -3.32812 0 2
179 1 10.6758 12.4995 1.77249 -1.43812 -4.99324 4.81479 1 -7.31525 0.0312351 4
180 1 12.448 10.691 1.78912 3.05039 -1.04956 1.15897 1 -7.37846 0.00731328 4
181 1 12.48 12.48 0 0 0 0 1 -3.34644 0 2
182 1 11.5886 11.5886 0.891429 0 0 0 1 -7.02315 0 4
183 1 8.92332 8.92504 3.55616 -1.26667 3.67583 -10.5331 1 -7.40448 0.0784643 4
184 1 12.4446 8.87017 3.50216 4.21438 -8.60127 -2.51748 1 -7.31926 0.0610479 4
185 1 8.89262 12.4792 3.62308 6.12243 -1.38496 -2.25452 1 -7.37384 0.0276887 4
186 1 10.6675 10.7013 3.59247 -1.69789 9.65766 -1.92652 1 -7.323 0.0621584 4
187 1 12.5052 12.4094 3.5723 1.17785 0.0738762 1.03537 1 -7.20986 0.00153415 4
188 1 13.3714 9.80572 0.891429 0 0 0 1 -6.97271 0 4
189 1 14.2651 8.88366 1.78602 2.44174 -1.94211 1.60336 1 -7.34489 0.00765874 4
190 1 16.0457 8.91429 0 0 0 0 1 -3.34192 0 2
191 1 15.1921 9.80739 2.6882 0.740427 -10.1244 7.05619 1 -7.24905 0.0951326 4
192 1 16.9371 9.80572 0.891429 0 0 0 1 -6.99443 0 4
193 1 13.3869 11.5516 2.67774 3.22696 6.15407 5.17113 1 -7.37906 0.0466984 4
194 1 14.2629 10.6971 0 0 0 0 1 -3.36623 0 2
195 1 14.2709 12.4828 1.82028 6.3418 -0.467688 3.44441 1 -7.3687 0.0325536 4
196 1 16.0869 10.7554 1.77152 -5.5796 0.720846 -2.89725 1 -7.31279 0.0249254 4
197 1 16.0457 12.48 0 0 0 0 1 -3.32458 0 2
198 1 15.1543 11.5886 0.891429 0 0 0 1 -6.9762 0 4
199 1 16.942 11.6416 2.66107 -1.93977 2.689 -0.15295 1 -7.32157 0.00685714 4
200 1 16.0765 8.93756 3.59702 1.38492 -4.92376 -2.73418 1 -7.32093 0.0209366 4
201 1 14.2555 10.6842 3.59781 -6.76767 1.24028 -5.76626 1 -7.3406 0.050161 4
202 1 16.0167 12.5132 3.55743 2.81171 -2.14828 7.16626 1 -7.34259 0.0397581 4
203 1 21.3882 10.7011 3.53046 5.39967 8.70227 -1.0603 1 -7.41763 0.0659834 4
206 1 17.8124 8.91565 1.79853 1.3813 -1.09339 6.58196 1 -7.33718 0.0288966 4
207 1 19.6114 8.91429 0 0 0 0 1 -3.34662 0 2
208 1 18.756 9.84988 2.62333 -2.48948 0.0667867 4.67875 1 -7.33204 0.0174856 4
209 1 20.5029 9.80572 0.891429 0 0 0 1 -6.9754 0 4
210 1 17.8286 10.6971 0 0 0 0 1 -3.32622 0 2
211 1 17.8376 12.4823 1.79915 -6.19316 -3.71828 8.17204 1 -7.32032 0.0740457 4
212 1 19.6044 10.7187 1.7811 7.51322 2.86184 2.20101 1 -7.38608 0.043248 4
213 1 19.6114 12.48 0 0 0 0 1 -3.34222 0 2
214 1 18.72 11.5886 0.891429 0 0 0 1 -7.02922 0 4
215 1 20.5342 11.5895 2.62543 5.81969 5.28138 6.6283 1 -7.37601 0.065788 4
216 1 19.6111 8.95966 3.54176 -7.04883 2.31805 3.81888 1 -7.32228 0.0433477 4
217 1 17.8363 10.7205 3.56014 9.37748 -4.56328 3.39256 1 -7.31013 0.0748593 4
218 1 19.6476 12.4988 3.51694 -2.74723 0.813675 0.114364 1 -7.31415 0.00511786 4
219 1 0.904793 13.3714 2.65682 4.6355 1.27323 0.000738103 1 -7.37657 0.0143836 4
220 1 2.67429 13.3714 0.891429 0 0 0 1 -7.04376 0 4
221 1 0 14.2629 0 0 0 0 1 -3.29954 0 2
222 1 1.78312 14.256 1.76239 4.47322 -4.05146 -1.2974 1 -7.37562 0.0237189 4
223 1 1.78286 16.0457 0 0 0 0 1 -3.33206 0 2
224 1 0.891429 15.1543 0.891429 0 0 0 1 -7.0245 0 4
225 1 0.884529 16.9628 2.64905 0.423003 0.479344 -2.55198 1 -7.35237 0.00430801 4
226 1 2.65841 15.1964 2.63347 -0.507805 7.53774 -2.84258 1 -7.30606 0.0405546 4
227 1 2.67429 16.9371 0.891429 0 0 0 1 -6.97841 0 4
228 1 3.56572 14.2629 0 0 0 0 1 -3.33883 0 2
229 1 3.58592 16.0552 1.81593 -3.95872 1.02733 0.594005 1 -7.31768 0.0106309 4
230 1 1.76563 16.0957 3.55055 -1.82518 -0.768742 -1.20885 1 -7.33322 0.00335087 4
231 1 3.56245 14.3192 3.56 6.49708 -5.05389 -0.259581 1 -7.29792 0.0422137 4
233 1 0.00165081 16.0259 1.74474 5.61077 3.34795 0.886365 1 -7.34066 0.0270601 4
232 1 0.0198877 14.2977 3.57104 0.388223 -2.96686 5.64565 1 -7.25436 0.0254114 4
234 1 4.46234 13.3781 2.6687 -4.12583 -9.68918 -3.95833 1 -7.35035 0.0787812 4
235 1 6.24 13.3714 0.891429 0 0 0 1 -7.00658 0 4
236 1 8.07041 13.3784 2.67362 3.29823 2.57529 -0.778332 1 -7.3332 0.011276 4
237 1 5.3385 14.2601 1.79861 -8.90433 2.78937 0.874746 1 -7.33676 0.0546694 4
238 1 5.34857 16.0457 0 0 0 0 1 -3.34554 0 2
239 1 4.45714 15.1543 0.891429 0 0 0 1 -7.0068 0 4
240 1 4.4356 16.947 2.70642 -4.72482 8.84443 7.11497 1 -7.36068 0.0940926 4
241 1 6.25658 15.1695 2.63845 2.03916 -3.01175 -0.493017 1 -7.3013 0.00838526 4
242 1 6.24 16.9371 0.891429 0 0 0 1 -6.95877 0 4
243 1 7.13143 14.2629 0 0 0 0 1 -3.34558 0 2
244 1 7.16505 16.0617 1.78069 -3.33229 1.47376 -4.0419 1 -7.41701 0.018432 4
245 1 8.02286 15.1543 0.891429 0 0 0 1 -7.00902 0 4
246 1 8.00307 16.9487 2.67092 -2.80146 -3.56911 7.42318 1 -7.3084 0.0471116 4
247 1 5.30403 16.0328 3.58792 -2.05144 -4.36992 1.68956 1 -7.27325 0.0162822 4
248 1 7.14748 14.2879 3.56821 -4.42046 5.40856 -8.41049 1 -7.32373 0.0743981 4
249 1 9.80572 13.3714 0.891429 0 0 0 1 -6.98858 0 4
250 1 11.5878 13.4028 2.64215 4.71312 -1.23414 -2.03262 1 -7.26032 0.0173459 4
251 1 8.95204 14.292 1.80697 6.42497 -6.43968 0.242929 1 -7.36478 0.0515424 4
252 1 8.91429 16.0457 0 0 0 0 1 -3.31737 0 2
253 1 9.84846 15.1843 2.66129 5.62141 1.59357 -0.940615 1 -7.34879 0.0218001 4
254 1 9.80572 16.9371 0.891429 0 0 0 1 -7.04397 0 4
255 1 10.6971 14.2629 0 0 0 0 1 -3.33394 0 2
256 1 10.6919 16.06 1.78142 -9.40072 -0.691429 -2.14305 1 -7.35666 0.0581622 4
257 1 12.4695 14.3012 1.77241 -0.125521 1.38086 5.47583 1 -7.36434 0.0198599 4
258 1 12.48 16.0457 0 0 0 0 1 -3.32208 0 2
259 1 11.5886 15.1543 0.891429 0 0 0 1 -7.01312 0 4
260 1 11.612 16.9418 2.6653 15.2694 3.27876 4.01829 1 -7.31117 0.161864 4
261 1 8.96557 16.0853 3.62378 8.13163 6.52369 3.69529 1 -7.19052 0.0761458 4
262 1 10.7397 14.2761 3.56125 7.54313 8.2711 -11.028 1 -7.32501 0.153693 4
263 1 12.5025 16.008 3.58537 -9.40583 3.12229 3.94775 1 -7.36372 0.070834 4
264 1 13.3714 13.3714 0.891429 0 0 0 1 -6.98765 0 4
265 1 15.1686 13.3528 2.62861 -1.19376 3.06693 -0.421063 1 -7.29512 0.00685192 4
266 1 16.9371 13.3714 0.891429 0 0 0 1 -6.98098 0 4
267 1 13.3487 15.1538 2.67492 2.31425 8.73881 5.22843 1 -7.34658 0.0678813 4
268 1 13.3714 16.9371 0.891429 0 0 0 1 -7.01186 0 4
269 1 14.2629 14.2629 0 0 0 0 1 -3.32381 0 2
270 1 14.2694 16.0294 1.744 -6.58993 -0.471916 4.91282 1 -7.35419 0.0421916 4
271 1 16.0703 14.2717 1.75667 0.485772 -1.10665 -2.04695 1 -7.40018 0.00351711 4
272 1 16.0457 16.0457 0 0 0 0 1 -3.32909 0 2
273 1 15.1543 15.1543 0.891429 0 0 0 1 -7.04152 0 4
274 1 15.1736 16.9467 2.63404 5.1269 -0.365486 -12.2768 1 -7.23925 0.110255 4
275 1 16.9565 15.116 2.64306 8.66789 -2.76608 -4.15711 1 -7.35744 0.0622831 4
276 1 16.9371 16.9371 0.891429 0 0 0 1 -7.05596 0 4
277 1 14.2494 14.2583 3.58005 -5.1526 1.1985 4.45684 1 -7.30922 0.0297825 4
278 1 16.064 16.0253 3.56684 -0.243295 3.86727 -1.35705 1 -7.30541 0.010492 4
279 1 18.7484 13.4141 2.68118 -2.3541 -6.95872 2.05449 1 -7.34165 0.0362168 4
280 1 20.5029 13.3714 0.891429 0 0 0 1 -7.00104 0 4
281 1 17.8286 14.2629 0 0 0 0 1 -3.32728 0 2
282 1 17.7939 16.059 1.77846 6.4824 6.64754 3.22445 1 -7.34976 0.0601316 4
283 1 19.6052 14.3078 1.77919 -6.84218 -7.82643 -0.684962 1 -7.37958 0.0675567 4
284 1 19.6114 16.0457 0 0 0 0 1 -3.31424 0 2
285 1 18.72 15.1543 0.891429 0 0 0 1 -6.99287 0 4
286 1 18.7069 16.9051 2.65917 -1.22975 -6.29508 7.18484 1 -7.33563 0.0577377 4
287 1 20.4879 15.1498 2.64308 -10.0916 -2.17682 4.89755 1 -7.33821 0.0812673 4
288 1 20.5029 16.9371 0.891429 0 0 0 1 -7.00494 0 4
289 1 17.8385 14.2605 3.54318 4.46406 0.777549 2.83529 1 -7.36347 0.0177835 4
290 1 19.6048 16.063 3.54371 6.65206 -12.8817 0.361082 1 -7.34641 0.130908 4
293 1 0 17.8286 0 0 0 0 1 -3.34633 0 2
294 1 1.75191 17.8243 1.77787 -1.0328 5.16645 -4.70753 1 -7.36946 0.0310713 4
295 1 1.78286 19.6114 0 0 0 0 1 -3.34368 0 2
296 1 0.891429 18.72 0.891429 0 0 0 1 -7.00677 0 4
297 1 0.885822 20.5509 2.71521 3.20028 -2.73627 -5.01605 1 -7.34622 0.0266957 4
298 1 2.61606 18.7124 2.64936 -1.90254 -0.077925 2.2574 1 -7.38593 0.00542854 4
299 1 2.67429 20.5029 0.891429 0 0 0 1 -7.0456 0 4
300 1 3.56572 17.8286 0 0 0 0 1 -3.33069 0 2
301 1 3.51312 19.6198 1.76958 0.232294 7.76294 9.44302 1 -7.32483 0.0930451 4
302 1 1.78269 19.6198 3.55309 -6.31777 3.71316 7.84273 1 -7.26245 0.0717098 4
303 1 3.54048 17.8511 3.56012 6.03108 -3.59989 0.552178 1 -7.3299 0.030896 4
305 1 0.0276071 19.5981 1.82369 8.72231 -0.719544 5.43102 1 -7.30511 0.0660347 4
27 1 5.3411 21.3722 1.79504 7.13414 7.20999 -2.35512 1 -7.3188 0.0674875 4
307 1 5.32273 17.8705 1.79346 4.2329 1.03798 6.79039 1 -7.33772 0.0405226 4
308 1 5.34857 19.6114 0 0 0 0 1 -3.34253 0 2
309 1 4.45714 18.72 0.891429 0 0 0 1 -7.0093 0 4
310 1 4.43798 20.4824 2.69915 1.37614 -5.84358 1.64672 1 -7.33116 0.0241208 4
311 1 6.25268 18.7417 2.67304 -2.57311 -9.56562 -3.19393 1 -7.3599 0.0674231 4
312 1 6.24 20.5029 0.891429 0 0 0 1 -6.99537 0 4
313 1 7.13143 17.8286 0 0 0 0 1 -3.32186 0 2
314 1 7.1427 19.626 1.79566 2.9031 -4.18014 -1.12608 1 -7.39059 0.0169111 4
315 1 8.02286 18.72 0.891429 0 0 0 1 -6.99458 0 4
316 1 8.05203 20.4846 2.62374 -2.02552 -2.46221 1.58504 1 -7.30724 0.00789084 4
317 1 5.31903 19.6165 3.57542 7.92946 -7.2153 -3.16604 1 -7.32426 0.0777789 4
318 1 7.14002 17.8624 3.56882 0.976315 2.30529 -4.35688 1 -7.39641 0.0157162 4
320 1 8.941 21.3758 1.75853 -6.63914 -6.17732 6.32869 1 -7.35497 0.0761164 4
321 1 12.483 21.3862 1.80107 -2.04214 5.52013 0.0469905 1 -7.36349 0.0215636 4
322 1 8.91303 17.8206 1.78173 -9.21787 -2.19103 -3.9482 1 -7.33604 0.0655776 4
323 1 8.91429 19.6114 0 0 0 0 1 -3.32934 0 2
324 1 9.79828 18.7019 2.69245 3.49967 -0.0638761 3.22995 1 -7.3273 0.0141193 4
325 1 9.80572 20.5029 0.891429 0 0 0 1 -7.05945 0 4
326 1 10.6971 17.8286 0 0 0 0 1 -3.32595 0 2
327 1 10.6672 19.622 1.75762 -1.35799 -0.101198 -3.15566 1 -7.3092 0.00735245 4
328 1 12.496 17.8215 1.77561 -2.54215 4.19784 -6.13694 1 -7.43735 0.0384325 4
329 1 12.48 19.6114 0 0 0 0 1 -3.33419 0 2
330 1 11.5886 18.72 0.891429 0 0 0 1 -6.99134 0 4
331 1 11.6369 20.4814 2.67059 -9.27482 -2.29679 2.91611 1 -7.29828 0.0621189 4
332 1 8.95684 19.6104 3.55216 2.45322 -9.46384 -3.3372 1 -7.31676 0.0664249 4
333 1 10.713 17.8174 3.57813 -1.16627 -4.33086 3.63246 1 -7.40166 0.0207338 4
334 1 12.4957 19.601 3.58814 5.42724 3.92822 3.40153 1 -7.38914 0.0351399 4
335 1 16.0508 21.3831 1.76161 0.0290455 0.103287 2.72137 1 -7.39103 0.00461675 4
337 1 13.3776 18.6794 2.65174 2.73813 -4.09786 2.8661 1 -7.28117 0.0202316 4
338 1 13.3714 20.5029 0.891429 0 0 0 1 -7.0147 0 4
339 1 14.2629 17.8286 0 0 0 0 1 -3.33593 0 2
340 1 14.2768 19.6286 1.76578 -3.73433 -2.25892 -3.88411 1 -7.34108 0.021246 4
341 1 16.0888 17.8329 1.76297 -4.58991 -1.99561 0.829426 1 -7.36444 0.0160198 4
342 1 16.0457 19.6114 0 0 0 0 1 -3.30916 0 2
343 1 15.1543 18.72 0.891429 0 0 0 1 -6.97986 0 4
344 1 15.193 20.4973 2.66101 -2.64383 2.92577 -3.34477 1 -7.3296 0.0166421 4
345 1 16.9376 18.7112 2.66422 8.65855 -5.53359 1.6605 1 -7.34428 0.0674389 4
346 1 16.9371 20.5029 0.891429 0 0 0 1 -7.02132 0 4
347 1 14.2746 17.8457 3.58395 -3.34587 -6.48191 1.94023 1 -7.34486 0.0354625 4
348 1 16.0269 19.5914 3.58094 -1.5266 -0.863947 -2.38468 1 -7.31228 0.00545472 4
304 1 21.3974 17.8245 3.58535 8.55069 5.71621 3.6955 1 -7.29986 0.0743463 4
351 1 17.8286 17.8286 0 0 0 0 1 -3.31977 0 2
352 1 17.8433 19.6136 1.75759 -1.07537 -0.631506 3.47878 1 -7.4081 0.00850058 4
353 1 19.6105 17.7805 1.77954 -1.40185 5.43227 2.60775 1 -7.38602 0.0238234 4
354 1 19.6114 19.6114 0 0 0 0 1 -3.34162 0 2
355 1 18.72 18.72 0.891429 0 0 0 1 -7.00017 0 4
356 1 18.7248 20.5119 2.61863 5.58121 -3.46762 1.91489 1 -7.26149 0.0291551 4
357 1 20.5155 18.6955 2.6684 -1.31596 -4.36293 4.76219 1 -7.29553 0.0270416 4
358 1 20.5029 20.5029 0.891429 0 0 0 1 -6.96467 0 4
359 1 17.8155 17.831 3.60452 3.04342 2.08022 -2.2803 1 -7.29187 0.0116951 4
360 1 19.6523 19.6137 3.60453 -0.518042 -3.91928 1.12517 1 -7.28187 0.010516 4
361 1 0.893137 0.900875 4.53343 2.21997 2.22576 -6.81388 1 -7.33361 0.0350496 4
362 1 0.882747 2.72224 6.29794 -2.49584 4.7314 0.800707 1 -7.2846 0.01821 4
363 1 2.71881 0.875884 6.30976 0.948891 -1.2366 0.119421 1 -7.38661 0.00152111 4
364 1 2.69796 2.61645 4.48132 9.01134 -0.422003 4.08378 1 -7.28528 0.0610349 4
365 1 3.59606 1.77374 5.42026 0.5812 5.52099 -0.818205 1 -7.3056 0.0195993 4
366 1 1.82419 3.59538 5.39899 -5.62211 5.59464 -7.21395 1 -7.28472 0.0715473 4
367 1 1.84522 1.79955 7.19721 -0.667214 2.60778 -3.36917 1 -7.33106 0.0115753 4
368 1 0.933145 0.927315 8.04562 6.61074 0.990926 2.69684 1 -7.33035 0.0323393 4
369 1 2.70962 2.64928 8.11539 -4.08755 -5.35782 -0.168765 1 -7.32333 0.0282848 4
370 1 3.59835 3.58837 7.2251 -2.5685 -6.31497 5.07809 1 -7.26542 0.0449784 4
411 1 0.0100628 1.78699 5.40704 2.4984 -0.930237 -1.21505 1 -7.3759 0.00534272 4
371 1 0.0154003 3.59834 7.17125 -11.946 -5.42311 5.87018 1 -7.38862 0.128578 4
651 1 3.58019 0.00836426 7.15301 -6.44632 -4.54147 4.7258 1 -7.33283 0.0526032 4
710 1 0.0356732 0.0284859 7.22409 -3.62217 -0.158249 -0.727377 1 -7.30286 0.00851122 4
652 1 1.83285 0.01042 5.43244 0.297352 0.213867 -0.935298 1 -7.34009 0.00062799 4
372 1 4.513 0.852766 4.4723 -4.05096 -5.85315 8.18196 1 -7.28779 0.0732061 4
373 1 4.52228 2.65614 6.27404 -2.04304 0.341504 10.9255 1 -7.32158 0.0769676 4
374 1 6.24428 0.86346 6.24973 -4.25803 -2.11626 -5.00236 1 -7.32814 0.029648 4
375 1 6.2642 2.67187 4.44848 -0.708025 0.476916 1.39098 1 -7.34543 0.00165789 4
376 1 7.16378 1.78171 5.35035 9.57817 2.07216 7.53278 1 -7.34262 0.095093 4
377 1 8.06978 0.897777 4.47859 -5.51997 -3.17296 8.86735 1 -7.30437 0.074173 4
378 1 8.05005 2.67779 6.25227 -5.72144 3.36096 -3.87686 1 -7.33439 0.0367611 4
379 1 5.34327 3.53864 5.33792 1.81393 -4.8864 1.59343 1 -7.36322 0.01849 4
380 1 5.39592 1.76147 7.15469 0.128008 -1.34257 -1.1072 1 -7.33322 0.00189515 4
381 1 4.49682 0.8856 8.09443 4.48105 -2.91892 3.78805 1 -7.3608 0.0267328 4
382 1 6.19088 2.67091 8.06407 3.72915 -8.06542 2.35933 1 -7.29107 0.05261 4
383 1 8.00096 0.920387 8.05422 -5.65485 -0.641167 -2.37577 1 -7.34757 0.0236726 4
384 1 7.11772 3.59608 7.11748 2.30296 -1.31956 3.56399 1 -7.27473 0.012291 4
665 1 7.164 -0.00530775 7.17151 -8.90291 -3.30881 2.36229 1 -7.32981 0.0596225 4
386 1 9.79623 0.885888 6.2588 -1.78062 -3.04637 -3.75383 1 -7.32457 0.0165206 4
387 1 9.80085 2.64013 4.42646 0.586687 -1.95878 -1.99881 1 -7.31882 0.00508911 4
388 1 10.7041 1.76383 5.36304 6.61019 3.00333 -6.1002 1 -7.33799 0.0559729 4
389 1 11.6018 0.857601 4.46879 3.5197 3.03313 -8.47028 1 -7.35455 0.0580934 4
390 1 11.5927 2.68741 6.25696 4.33703 0.0322889 -3.53457 1 -7.35232 0.0194845 4
391 1 8.91142 3.52989 5.3803 -8.46338 -5.00765 0.952102 1 -7.29483 0.0607562 4
392 1 12.517 3.55508 5.38095 -2.49917 -2.89242 1.96065 1 -7.31477 0.0114875 4
393 1 8.92613 1.83975 7.18609 -8.0114 1.05149 0.652976 1 -7.34344 0.0409024 4
394 1 9.82523 2.69336 8.08834 -1.00623 -5.80088 -9.04137 1 -7.41407 0.0724561 4
395 1 12.4767 1.79236 7.12686 0.673356 -3.10816 2.92252 1 -7.31184 0.0116115 4
396 1 11.556 0.869529 8.03148 2.57486 6.02781 5.91601 1 -7.35315 0.0485266 4
397 1 10.7421 3.54479 7.21237 -0.527226 1.22281 -0.06976 1 -7.33624 0.00110673 4
398 1 13.3665 0.887995 6.24118 1.46611 5.31046 -5.92274 1 -7.36721 0.0407249 4
399 1 13.3933 2.6308 4.48209 0.287636 -8.25007 -0.7747 1 -7.40538 0.0427897 4
400 1 14.2668 1.78546 5.34783 4.44345 5.17902 1.6539 1 -7.34552 0.0306868 4
401 1 15.2276 0.933084 4.48784 -2.00421 -1.41006 -3.01813 1 -7.35731 0.0094075 4
402 1 15.169 2.65717 6.29344 14.5503 -5.29485 -2.06549 1 -7.24592 0.151879 4
403 1 16.9406 0.88538 6.28595 8.70879 -4.72654 -3.6191 1 -7.23804 0.0692642 4
404 1 16.9587 2.69278 4.45818 -0.419325 -3.7532 -2.77 1 -7.404 0.0136531 4
405 1 16.066 3.56079 5.37724 4.65522 -0.934989 -0.600297 1 -7.31212 0.0142571 4
406 1 13.3828 2.67135 8.06524 3.42862 7.84891 -3.3315 1 -7.34571 0.0525699 4
407 1 16.0577 1.75577 7.16815 1.86108 4.17606 0.155202 1 -7.37634 0.0130256 4
408 1 15.1715 0.876598 8.06308 3.54781 -2.48115 6.38965 1 -7.31901 0.0370784 4
409 1 16.9556 2.71874 8.06424 -3.00117 -6.9074 -2.69189 1 -7.25796 0.0398138 4
410 1 14.2579 3.57591 7.23208 -0.367156 -2.86422 3.32776 1 -7.27208 0.0120829 4
412 1 17.8249 1.80861 5.34097 0.87273 -6.6447 3.03227 1 -7.30427 0.0336785 4
413 1 18.7731 0.905801 4.48358 5.0821 0.477225 3.42753 1 -7.2808 0.0235298 4
414 1 18.7471 2.64238 6.3052 0.902848 -4.84625 -2.45683 1 -7.29306 0.0188827 4
415 1 20.5262 0.91743 6.30866 -2.82849 -4.62766 -2.07035 1 -7.3781 0.020977 4
416 1 20.5533 2.70219 4.45235 -2.95582 -0.562743 -4.10476 1 -7.30833 0.0161225 4
417 1 19.6431 3.57975 5.41727 3.2924 -1.47645 5.97884 1 -7.24161 0.0303535 4
418 1 19.634 1.77149 7.17835 -5.76554 6.378 -2.15827 1 -7.3684 0.0489092 4
419 1 18.7106 0.910706 8.08278 5.56528 1.85247 -1.47154 1 -7.34837 0.0227618 4
420 1 20.5135 2.70709 8.03016 -3.01956 -5.25642 -4.80821 1 -7.40858 0.0372626 4
421 1 17.8895 3.58685 7.172 -1.47531 0.272493 -3.3701 1 -7.34453 0.0084702 4
423 1 0.917152 4.45427 4.52995 -4.56987 -0.60741 0.35754 1 -7.31299 0.0133078 4
424 1 0.890702 6.25219 6.28885 1.30227 -1.73903 1.07474 1 -7.35088 0.00365687 4
425 1 2.68872 4.44426 6.33088 -5.09346 -3.638 10.2843 1 -7.36786 0.090218 4
426 1 2.70339 6.24367 4.45994 -2.19131 8.17076 -3.62818 1 -7.2906 0.0527362 4
427 1 3.57727 5.36241 5.37261 -1.34665 -3.30643 -0.95694 1 -7.30785 0.00850338 4
428 1 1.78545 7.16648 5.43253 4.45197 -1.00676 1.63271 1 -7.32683 0.0146266 4
429 1 0.887611 8.02237 4.4875 -4.0454 -0.467209 10.6579 1 -7.34431 0.0810233 4
430 1 2.64747 8.02617 6.2968 -5.50803 0.559354 3.41484 1 -7.31328 0.0263363 4
431 1 1.77021 5.35315 7.17741 -6.09175 -2.0935 -3.07842 1 -7.35037 0.0317243 4
432 1 0.84801 4.4814 8.07445 7.07795 6.4666 -3.81587 1 -7.31308 0.066273 4
433 1 2.63369 6.28149 8.04518 4.42166 -0.781148 -0.820188 1 -7.30646 0.0129676 4
434 1 0.882288 8.07761 8.04798 0.246935 1.23234 6.57658 1 -7.33595 0.027904 4