ITEM: TIMESTEP
49125850
ITEM: NUMBER OF ATOMS
3060
ITEM: BOX BOUNDS pp pp mm
0.0000000000000000e+00 2.1394294200000001e+01
0.0000000000000000e+00 2.1394294200000001e+01
-5.3491084073550004e-03 5.3485735499999997e+01
ITEM: ATOMS id type x y z vx vy vz c_clusts c_atom_pe c_atom_ke c_atom_coord
1 1 0 0 0 0 0 0 1 -3.328 0 2
2 1 1.78286 1.78286 0 0 0 0 1 -3.31074 0 2
3 1 0.891429 0.891429 0.891429 0 0 0 1 -7.01681 0 4
4 1 0.877043 2.72338 2.68884 -3.08591 -9.71738 4.98314 1 -7.29051 0.0801573 4
5 1 2.63919 0.890097 2.62332 -4.85248 -5.73203 -0.452092 1 -7.28483 0.0352338 4
6 1 2.67429 2.67429 0.891429 0 0 0 1 -7.03534 0 4
7 1 3.56572 0 0 0 0 0 1 -3.341 0 2
8 1 3.5605 1.7703 1.75901 -2.50277 -5.22033 -7.62829 1 -7.37179 0.0570805 4
9 1 0 3.56572 0 0 0 0 1 -3.31018 0 2
10 1 1.76666 3.54896 1.78503 -2.40368 -1.70321 -3.57778 1 -7.33257 0.0133691 4
11 1 3.56572 3.56572 0 0 0 0 1 -3.33846 0 2
12 1 1.83624 1.81551 3.58868 1.9017 4.15128 -0.119469 1 -7.25933 0.0129862 4
13 1 3.61831 3.59965 3.5984 3.64763 -10.7575 4.88763 1 -7.35303 0.0951799 4
292 1 1.79587 0.00968006 1.77892 5.33631 -0.933388 -3.27153 1 -7.39412 0.0249284 4
56 1 0.0190295 3.61826 3.58177 0.471241 -2.25545 -0.326151 1 -7.31768 0.00337074 4
55 1 -0.0019552 1.81032 1.78166 -3.8093 3.1611 -2.24246 1 -7.36193 0.0183815 4
291 1 3.55785 -0.0252397 3.54164 -0.277291 -7.71213 3.51394 1 -7.29127 0.0447534 4
350 1 0.00707484 0.0228784 3.53065 2.25769 4.60244 -3.16178 1 -7.31671 0.0225794 4
14 1 5.34857 1.78286 0 0 0 0 1 -3.32117 0 2
15 1 4.45714 0.891429 0.891429 0 0 0 1 -7.01909 0 4
16 1 4.46149 2.6103 2.71937 -2.67711 -6.19371 -2.8052 1 -7.304 0.0332364 4
17 1 6.2601 0.885402 2.68942 1.82195 2.1974 -2.53938 1 -7.39617 0.00908524 4
18 1 6.24 2.67429 0.891429 0 0 0 1 -6.98137 0 4
19 1 7.13143 0 0 0 0 0 1 -3.3196 0 2
20 1 7.15501 1.7666 1.74996 -4.38882 -1.50078 2.95033 1 -7.31229 0.0188088 4
21 1 8.02286 0.891429 0.891429 0 0 0 1 -7.05443 0 4
22 1 8.00228 2.66297 2.65764 9.97564 6.0214 -2.36035 1 -7.33788 0.0879749 4
23 1 5.34666 3.55055 1.83124 -1.29542 -5.27313 1.58401 1 -7.24805 0.0199133 4
24 1 7.13143 3.56572 0 0 0 0 1 -3.3396 0 2
25 1 5.40525 1.73126 3.56806 -3.07784 -1.60766 7.81344 1 -7.36095 0.045504 4
26 1 7.11925 3.52349 3.52836 -2.01104 -2.08166 1.79924 1 -7.33956 0.00722938 4
306 1 7.1982 -0.0217056 3.52751 -8.67205 -10.2136 10.0035 1 -7.31645 0.174026 4
28 1 8.91429 1.78286 0 0 0 0 1 -3.33632 0 2
29 1 9.82612 0.824413 2.66688 -5.15415 -3.71505 4.25948 1 -7.30918 0.0364182 4
30 1 9.80572 2.67429 0.891429 0 0 0 1 -7.02582 0 4
31 1 10.6971 0 0 0 0 0 1 -3.33771 0 2
32 1 10.6658 1.75684 1.7852 -2.93504 3.3232 -4.77365 1 -7.33953 0.0264194 4
33 1 12.48 1.78286 0 0 0 0 1 -3.33053 0 2
34 1 11.5886 0.891429 0.891429 0 0 0 1 -6.99913 0 4
35 1 11.5715 2.69006 2.66985 1.50149 1.89576 0.141519 1 -7.32573 0.00365263 4
36 1 8.95433 3.53492 1.79355 -0.308868 -3.79117 0.133224 1 -7.33814 0.00901652 4
37 1 10.6971 3.56572 0 0 0 0 1 -3.35074 0 2
38 1 12.4895 3.56039 1.77609 -1.39587 -4.64007 -8.11635 1 -7.38015 0.0556162 4
39 1 8.90126 1.75423 3.5829 -3.47923 -2.93439 7.86516 1 -7.22684 0.0513978 4
40 1 12.4777 1.79137 3.52397 11.0188 -5.51033 -8.92311 1 -7.35556 0.144029 4
41 1 10.7022 3.56055 3.58065 6.62721 4.83418 0.473324 1 -7.37828 0.0420221 4
319 1 10.7021 -0.0630655 3.56947 -8.29371 -4.52206 -1.12289 1 -7.3509 0.0563268 4
42 1 13.3779 0.890095 2.67993 -6.5266 0.740679 -0.315925 1 -7.3742 0.0269167 4
43 1 13.3714 2.67429 0.891429 0 0 0 1 -7.01754 0 4
44 1 14.2629 0 0 0 0 0 1 -3.30921 0 2
45 1 14.2515 1.7512 1.76848 3.73133 -3.64161 1.55556 1 -7.32211 0.0184262 4
46 1 16.0457 1.78286 0 0 0 0 1 -3.33972 0 2
47 1 15.1543 0.891429 0.891429 0 0 0 1 -7.02136 0 4
48 1 15.1446 2.68173 2.69229 -6.56518 -3.22148 -5.1492 1 -7.33712 0.0497902 4
49 1 16.8981 0.911068 2.66893 1.89734 1.22106 -3.26504 1 -7.35568 0.00980407 4
50 1 16.9371 2.67429 0.891429 0 0 0 1 -7.0139 0 4
51 1 14.2629 3.56572 0 0 0 0 1 -3.32912 0 2
52 1 16.0342 3.56459 1.76982 -6.86268 5.46776 -1.92617 1 -7.34786 0.0502317 4
53 1 15.9977 1.79222 3.55616 -0.262211 -8.60392 1.56819 1 -7.35393 0.0476501 4
54 1 14.2812 3.58203 3.54482 -0.37136 -5.38762 -1.25151 1 -7.3829 0.0191275 4
336 1 14.2864 -0.0264889 3.53204 -6.77889 0.509303 -1.89943 1 -7.38599 0.0310097 4
57 1 17.8286 0 0 0 0 0 1 -3.33736 0 2
58 1 17.801 1.81772 1.78494 2.50975 4.55989 4.39101 1 -7.31387 0.0288634 4
59 1 19.6114 1.78286 0 0 0 0 1 -3.33737 0 2
60 1 18.72 0.891429 0.891429 0 0 0 1 -6.99447 0 4
61 1 18.763 2.70619 2.67843 11.3508 -5.92169 0.300912 1 -7.30863 0.102076 4
62 1 20.5146 0.941061 2.63943 -0.141753 -0.951504 3.69719 1 -7.34639 0.00908412 4
63 1 20.5029 2.67429 0.891429 0 0 0 1 -7.01381 0 4
64 1 17.8286 3.56572 0 0 0 0 1 -3.33938 0 2
65 1 19.644 3.57186 1.79678 2.72154 -0.109897 -2.77264 1 -7.39426 0.00940259 4
66 1 19.6156 1.81293 3.57477 -1.85587 -5.91698 2.24458 1 -7.3866 0.0270712 4
67 1 17.8692 3.56009 3.58603 1.03544 -1.02932 -1.39733 1 -7.33221 0.00254209 4
68 1 19.6238 0.0193087 1.76133 -2.20862 2.27498 -2.1201 1 -7.34965 0.00905528 4
349 1 17.8344 0.037632 3.54436 -1.02648 -5.75627 2.1787 1 -7.33465 0.0242342 4
69 1 1.78286 5.34857 0 0 0 0 1 -3.33258 0 2
70 1 0.891429 4.45714 0.891429 0 0 0 1 -7.02116 0 4
71 1 0.890455 6.16169 2.63776 8.20353 -2.02899 5.80374 1 -7.30858 0.0654159 4
72 1 2.68393 4.38794 2.72158 4.52762 -0.332822 6.37859 1 -7.3414 0.0381526 4
73 1 2.67429 6.24 0.891429 0 0 0 1 -7.02838 0 4
74 1 3.54337 5.34032 1.80469 5.41845 -4.56029 -2.23909 1 -7.32235 0.0343389 4
75 1 0 7.13143 0 0 0 0 1 -3.33666 0 2
76 1 1.76712 7.11092 1.73756 -4.26174 -5.62711 -3.31866 1 -7.31615 0.0378686 4
77 1 0.891429 8.02286 0.891429 0 0 0 1 -7.04601 0 4
78 1 2.66695 8.03706 2.66168 4.05437 5.59147 -3.98969 1 -7.30773 0.0395988 4
79 1 3.56572 7.13143 0 0 0 0 1 -3.34019 0 2
80 1 1.77245 5.28997 3.58632 -1.55001 -0.251445 -2.82249 1 -7.29872 0.0064933 4
81 1 3.56867 7.13918 3.57687 -4.1003 3.20801 4.10796 1 -7.29373 0.0273738 4
128 1 -0.0202521 5.31883 1.76031 -3.78044 -0.190369 -2.86796 1 -7.37597 0.0140377 4
82 1 0.016522 7.09294 3.56634 -9.1724 -0.922665 2.71909 1 -7.23717 0.0574983 4
83 1 5.34857 5.34857 0 0 0 0 1 -3.36057 0 2
84 1 4.45714 4.45714 0.891429 0 0 0 1 -6.94206 0 4
85 1 4.47934 6.19516 2.67139 -2.91599 -5.90105 -0.991412 1 -7.29691 0.0275786 4
86 1 6.25818 4.48267 2.65233 -0.691897 1.65976 -0.465587 1 -7.31014 0.00214756 4
87 1 6.24 6.24 0.891429 0 0 0 1 -7.03346 0 4
88 1 7.1508 5.39103 1.7483 1.64634 3.44051 -6.51226 1 -7.35881 0.0354516 4
89 1 8.02286 4.45714 0.891429 0 0 0 1 -6.96221 0 4
90 1 8.0399 6.26031 2.66744 6.4136 -2.85417 6.55953 1 -7.40983 0.0574549 4
91 1 5.36468 7.13545 1.77641 -4.99328 -2.2943 -0.750284 1 -7.34257 0.0191456 4
92 1 4.45714 8.02286 0.891429 0 0 0 1 -7.01416 0 4
93 1 6.19664 8.02897 2.70371 -11.3149 0.679053 -7.56984 1 -7.28245 0.11564 4
94 1 7.13143 7.13143 0 0 0 0 1 -3.31378 0 2
95 1 8.02286 8.02286 0.891429 0 0 0 1 -7.03323 0 4
96 1 5.39276 5.37633 3.57191 4.58382 5.08635 -8.93839 1 -7.33817 0.0789095 4
97 1 7.1853 7.12715 3.55981 -2.89045 -0.0177888 4.39562 1 -7.31982 0.0172266 4
98 1 8.91429 5.34857 0 0 0 0 1 -3.31435 0 2
99 1 9.81656 4.42975 2.66701 -5.94795 -0.164288 2.05401 1 -7.38541 0.024663 4
100 1 9.80572 6.24 0.891429 0 0 0 1 -7.00716 0 4
101 1 10.7245 5.31489 1.78751 -5.39353 -1.49948 -1.92698 1 -7.35021 0.0218172 4
102 1 12.48 5.34857 0 0 0 0 1 -3.34048 0 2
103 1 11.5886 4.45714 0.891429 0 0 0 1 -7.02495 0 4
104 1 11.622 6.23623 2.68148 -0.986318 -1.89536 4.09124 1 -7.38133 0.0132598 4
105 1 8.95983 7.1331 1.7442 -2.73346 -1.66793 7.50551 1 -7.33645 0.0414451 4
106 1 9.82396 8.03026 2.64836 8.89701 7.39302 -5.10039 1 -7.3646 0.0994808 4
107 1 10.6971 7.13143 0 0 0 0 1 -3.30676 0 2
108 1 12.4995 7.08297 1.82123 1.24627 -2.3051 3.13612 1 -7.34401 0.0103957 4
109 1 11.5886 8.02286 0.891429 0 0 0 1 -6.94139 0 4
110 1 8.90082 5.32323 3.50762 4.0736 -5.24778 6.74693 1 -7.30934 0.0558033 4
111 1 12.4652 5.36253 3.59214 -2.53553 -0.21449 2.97515 1 -7.26762 0.00953958 4
112 1 10.7054 7.14077 3.57644 1.55089 8.28302 3.22263 1 -7.35596 0.0506649 4
113 1 13.3844 4.39808 2.67005 1.83648 -1.60083 6.15588 1 -7.28358 0.0272811 4
114 1 13.3714 6.24 0.891429 0 0 0 1 -7.03163 0 4
115 1 14.2322 5.36736 1.77509 -5.53386 5.51737 -12.3738 1 -7.24308 0.133309 4
116 1 16.0457 5.34857 0 0 0 0 1 -3.33286 0 2
117 1 15.1543 4.45714 0.891429 0 0 0 1 -6.97853 0 4
118 1 15.2007 6.26636 2.64336 -2.65783 4.36518 3.87323 1 -7.25478 0.0255946 4
119 1 16.9746 4.44544 2.64391 1.84568 -4.19682 7.10022 1 -7.28241 0.0444617 4
120 1 16.9371 6.24 0.891429 0 0 0 1 -7.03066 0 4
121 1 13.3873 7.98568 2.69899 -0.0757664 1.46204 0.52142 1 -7.35269 0.00150327 4
122 1 14.2629 7.13143 0 0 0 0 1 -3.36265 0 2
123 1 16.0771 7.14851 1.75193 2.7212 -4.50528 -4.58589 1 -7.36456 0.0303326 4
124 1 15.1543 8.02286 0.891429 0 0 0 1 -7.02262 0 4
125 1 16.9522 8.04757 2.725 -0.253416 -8.49274 -7.71677 1 -7.26346 0.0819981 4
126 1 16.034 5.33638 3.57686 -6.17574 8.77556 -1.71323 1 -7.27707 0.0734994 4
127 1 14.2628 7.10431 3.57081 2.67598 -2.21153 6.01072 1 -7.31799 0.0299888 4
129 1 17.8282 5.32842 1.76725 1.07538 1.3616 -4.07145 1 -7.40829 0.0121915 4
130 1 19.6114 5.34857 0 0 0 0 1 -3.30302 0 2
131 1 18.72 4.45714 0.891429 0 0 0 1 -7.00022 0 4
132 1 18.7071 6.24058 2.6504 3.29091 -2.84975 -0.137774 1 -7.36051 0.0118075 4
133 1 20.4979 4.46092 2.64351 -2.83856 -2.22231 -2.64639 1 -7.32601 0.0124482 4
134 1 20.5029 6.24 0.891429 0 0 0 1 -7.00779 0 4
135 1 17.8286 7.13143 0 0 0 0 1 -3.32548 0 2
136 1 19.5607 7.11711 1.7808 -1.79438 -4.98645 5.44984 1 -7.33524 0.0359671 4
137 1 18.72 8.02286 0.891429 0 0 0 1 -7.01699 0 4
138 1 20.4904 8.04126 2.65921 -5.51574 -1.52744 0.50479 1 -7.30234 0.0205471 4
139 1 19.6189 5.34627 3.59288 4.53798 -1.17614 1.05708 1 -7.29012 0.0143743 4
140 1 17.8658 7.14977 3.59357 5.87391 5.65456 3.28416 1 -7.35066 0.0480903 4
141 1 1.78286 8.91429 0 0 0 0 1 -3.34154 0 2
142 1 0.900802 9.81713 2.62936 0.60103 -4.01535 6.00288 1 -7.31129 0.0326891 4
143 1 2.67429 9.80572 0.891429 0 0 0 1 -7.00124 0 4
144 1 3.54667 8.92217 1.76241 3.34891 -4.36435 3.02049 1 -7.33708 0.024515 4
145 1 0 10.6971 0 0 0 0 1 -3.32983 0 2
146 1 1.79428 10.7073 1.80441 -3.35731 1.90855 -5.14076 1 -7.366 0.0257321 4
147 1 1.78286 12.48 0 0 0 0 1 -3.31194 0 2
148 1 0.891429 11.5886 0.891429 0 0 0 1 -7.01818 0 4
149 1 2.68626 11.5733 2.65249 -3.74777 -0.317729 -1.56146 1 -7.37461 0.0103229 4
150 1 3.56572 10.6971 0 0 0 0 1 -3.34595 0 2
151 1 3.61232 12.4448 1.76447 -10.1988 -4.05741 -2.48306 1 -7.31581 0.0788269 4
152 1 1.77765 8.92113 3.59766 5.99417 3.94053 0.864711 1 -7.25498 0.0324942 4
153 1 1.86652 12.4835 3.53353 1.9091 0.743755 -2.09412 1 -7.37369 0.00534238 4
154 1 3.58126 10.6764 3.52013 -2.17893 2.48765 -12.6637 1 -7.25733 0.106625 4
205 1 0.021523 8.88733 1.77539 7.79864 -5.71945 -1.6322 1 -7.40305 0.0598743 4
204 1 0.0274687 12.5029 1.75508 12.8013 -1.76385 -1.01066 1 -7.31569 0.104571 4
155 1 5.34857 8.91429 0 0 0 0 1 -3.32703 0 2
156 1 4.47835 9.83151 2.64826 -5.4774 -0.44307 -1.44911 1 -7.30004 0.0201032 4
157 1 6.24 9.80572 0.891429 0 0 0 1 -6.9911 0 4
158 1 7.12915 8.90692 1.76892 -14.5581 -5.24842 -0.653707 1 -7.33891 0.149328 4
159 1 7.98078 9.81765 2.66499 -1.18666 -5.06987 -8.40851 1 -7.36762 0.0608824 4
160 1 5.35133 10.7265 1.77878 3.91225 -3.82188 3.89436 1 -7.38692 0.0280581 4
161 1 5.34857 12.48 0 0 0 0 1 -3.32247 0 2
162 1 4.45714 11.5886 0.891429 0 0 0 1 -7.03602 0 4
163 1 6.24295 11.5903 2.67537 0.19733 3.82394 -2.02197 1 -7.39282 0.0116704 4
164 1 7.13143 10.6971 0 0 0 0 1 -3.32853 0 2
165 1 7.12782 12.4705 1.78195 -4.25438 -2.06072 6.00094 1 -7.32893 0.0363232 4
166 1 8.02286 11.5886 0.891429 0 0 0 1 -7.02497 0 4
167 1 5.32196 8.8849 3.58924 -4.28496 -1.12599 2.59236 1 -7.35601 0.0164004 4
168 1 5.37847 12.4952 3.55011 -10.8889 -1.2207 -0.0800993 1 -7.37728 0.0747315 4
169 1 7.11599 10.6787 3.54269 -1.41793 5.19654 2.87719 1 -7.36029 0.023212 4
170 1 8.91429 8.91429 0 0 0 0 1 -3.30964 0 2
171 1 9.80572 9.80572 0.891429 0 0 0 1 -6.99933 0 4
172 1 10.6617 8.93898 1.74841 1.73347 6.90943 0.496389 1 -7.33086 0.0317384 4
173 1 12.48 8.91429 0 0 0 0 1 -3.34342 0 2
174 1 11.5942 9.80483 2.67459 6.75416 3.37295 5.29977 1 -7.28754 0.0529579 4
175 1 8.86916 10.7388 1.78173 -4.07851 -1.94089 0.444696 1 -7.33303 0.0128214 4
176 1 8.91429 12.48 0 0 0 0 1 -3.34646 0 2
177 1 9.79756 11.6025 2.64844 7.30779 0.509237 0.11516 1 -7.37586 0.0334096 4
178 1 10.6971 10.6971 0 0 0 0 1 -3.33322 0 2
179 1 10.6998 12.4535 1.8014 6.40689 -0.158016 -3.31943 1 -7.35561 0.0324233 4
180 1 12.5108 10.6914 1.78317 4.29934 2.75166 -0.633539 1 -7.31644 0.0164677 4
181 1 12.48 12.48 0 0 0 0 1 -3.33358 0 2
182 1 11.5886 11.5886 0.891429 0 0 0 1 -6.99147 0 4
183 1 8.91211 8.93504 3.53741 -1.8685 -1.17212 5.76254 1 -7.33681 0.023697 4
184 1 12.5111 8.87747 3.56512 2.88091 10.338 11.5737 1 -7.33223 0.155062 4
185 1 8.92096 12.5055 3.55336 -1.2169 4.19942 -5.09556 1 -7.28161 0.0280594 4
186 1 10.6949 10.7328 3.55484 5.35811 -3.80303 -3.16891 1 -7.32135 0.033122 4
187 1 12.5014 12.5149 3.59358 0.614019 12.6801 1.73091 1 -7.41105 0.102175 4
188 1 13.3714 9.80572 0.891429 0 0 0 1 -7.02813 0 4
189 1 14.2896 8.90646 1.79751 -1.26812 2.08345 0.244856 1 -7.35556 0.00374005 4
190 1 16.0457 8.91429 0 0 0 0 1 -3.34778 0 2
191 1 15.1652 9.76461 2.69947 -1.90016 4.50914 -7.15359 1 -7.26813 0.0467547 4
192 1 16.9371 9.80572 0.891429 0 0 0 1 -6.98362 0 4
193 1 13.3826 11.6 2.69727 -2.01968 1.70363 -4.56654 1 -7.33643 0.0173251 4
194 1 14.2629 10.6971 0 0 0 0 1 -3.34473 0 2
195 1 14.2759 12.4683 1.76983 -5.37803 2.17624 -5.49449 1 -7.30168 0.0397411 4
196 1 16.0869 10.7554 1.77152 -5.5796 0.720846 -2.89725 1 -7.25359 0.0249254 4
197 1 16.0457 12.48 0 0 0 0 1 -3.31389 0 2
198 1 15.1543 11.5886 0.891429 0 0 0 1 -7.06193 0 4
199 1 16.9422 11.5893 2.71337 3.06495 -9.00283 5.85489 1 -7.40493 0.0776318 4
200 1 16.0567 8.85598 3.57695 -5.84256 -2.56743 2.45277 1 -7.38307 0.0290943 4
201 1 14.2822 10.6901 3.53803 8.82457 0.653031 2.28489 1 -7.26268 0.0519852 4
202 1 16.0795 12.4765 3.59023 2.425 -0.495766 -0.923412 1 -7.33589 0.00434396 4
203 1 21.4657 10.7528 3.54053 4.19112 -3.47328 3.22732 1 -7.26003 0.0249249 4
206 1 17.8634 8.94446 1.80266 1.84102 3.43753 -3.00832 1 -7.3323 0.0150976 4
207 1 19.6114 8.91429 0 0 0 0 1 -3.34852 0 2
208 1 18.7116 9.82183 2.71834 2.37074 -1.78443 5.49188 1 -7.2943 0.0242531 4
209 1 20.5029 9.80572 0.891429 0 0 0 1 -7.00097 0 4
210 1 17.8286 10.6971 0 0 0 0 1 -3.31441 0 2
211 1 17.8146 12.4957 1.8006 1.25643 -0.140853 -6.63472 1 -7.33181 0.0283938 4
212 1 19.6732 10.7177 1.77843 -1.20798 -2.35763 2.68113 1 -7.25579 0.00884224 4
213 1 19.6114 12.48 0 0 0 0 1 -3.30341 0 2
214 1 18.72 11.5886 0.891429 0 0 0 1 -6.95977 0 4
215 1 20.5411 11.6538 2.69363 -3.12956 1.68468 2.42634 1 -7.29906 0.0115269 4
216 1 19.6193 8.95477 3.58658 7.15435 -4.50373 5.19827 1 -7.35003 0.0613029 4
217 1 17.8557 10.6963 3.58319 -7.52635 -0.943374 2.94795 1 -7.37568 0.041221 4
218 1 19.6078 12.4868 3.57865 -3.01475 -3.18766 6.00287 1 -7.40494 0.0344104 4
219 1 0.930158 13.3876 2.66258 -0.511161 -0.772332 0.678118 1 -7.33655 0.000820125 4
220 1 2.67429 13.3714 0.891429 0 0 0 1 -6.99714 0 4
221 1 0 14.2629 0 0 0 0 1 -3.3274 0 2
222 1 1.78312 14.256 1.76239 4.47322 -4.05146 -1.2974 1 -7.32997 0.0237189 4
223 1 1.78286 16.0457 0 0 0 0 1 -3.32849 0 2
224 1 0.891429 15.1543 0.891429 0 0 0 1 -7.04542 0 4
225 1 0.869133 16.9309 2.66949 -0.975689 -3.10623 4.13304 1 -7.32163 0.0172304 4
226 1 2.67479 15.1824 2.6798 3.50909 -9.61659 5.37387 1 -7.30161 0.0832003 4
227 1 2.67429 16.9371 0.891429 0 0 0 1 -7.03223 0 4
228 1 3.56572 14.2629 0 0 0 0 1 -3.31855 0 2
229 1 3.53861 16.0913 1.75609 -0.296457 2.02059 -3.94241 1 -7.32274 0.01227 4
230 1 1.7695 16.0655 3.54831 1.3232 -2.20948 2.06599 1 -7.31573 0.00678504 4
231 1 3.5755 14.2252 3.52857 -3.23922 -5.26583 -3.1743 1 -7.34077 0.0300617 4
233 1 0.00165081 16.0259 1.74474 5.61077 3.34795 0.886365 1 -7.3527 0.0270601 4
232 1 0.00115167 14.2404 3.54799 -2.34122 -4.08855 -12.0526 1 -7.39247 0.104233 4
234 1 4.47611 13.3492 2.66793 6.25725 4.24213 0.275933 1 -7.38668 0.0356183 4
235 1 6.24 13.3714 0.891429 0 0 0 1 -7.00136 0 4
236 1 8.03548 13.4069 2.68161 -7.98236 -0.631221 -1.1261 1 -7.33523 0.0406971 4
237 1 5.33135 14.2749 1.76348 7.20585 -1.31774 -2.43295 1 -7.3761 0.0370842 4
238 1 5.34857 16.0457 0 0 0 0 1 -3.33597 0 2
239 1 4.45714 15.1543 0.891429 0 0 0 1 -7.02728 0 4
240 1 4.44429 16.9795 2.70179 5.41623 -6.38894 -7.13595 1 -7.32276 0.0753608 4
241 1 6.22214 15.1633 2.68414 -6.04035 4.30274 3.09 1 -7.32211 0.040176 4
242 1 6.24 16.9371 0.891429 0 0 0 1 -7.01767 0 4
243 1 7.13143 14.2629 0 0 0 0 1 -3.34419 0 2
244 1 7.16505 16.0617 1.78069 -3.33229 1.47376 -4.0419 1 -7.26882 0.018432 4
245 1 8.02286 15.1543 0.891429 0 0 0 1 -7.00147 0 4
246 1 8.05337 16.9385 2.72188 7.89648 1.64028 -3.42552 1 -7.37158 0.0477894 4
247 1 5.36022 16.0721 3.57931 4.35833 6.20388 -1.99636 1 -7.30753 0.0382596 4
248 1 7.13756 14.298 3.53498 2.62953 -4.80434 4.45387 1 -7.37225 0.0310174 4
249 1 9.80572 13.3714 0.891429 0 0 0 1 -7.02099 0 4
250 1 11.6322 13.3412 2.68163 -0.000292404 -4.19334 6.32759 1 -7.34598 0.0358658 4
251 1 8.95381 14.2531 1.77815 -7.13408 3.15952 -2.49619 1 -7.31495 0.0417702 4
252 1 8.91429 16.0457 0 0 0 0 1 -3.31829 0 2
253 1 9.84471 15.1841 2.69624 -5.55934 -2.23016 1.05221 1 -7.38318 0.0230217 4
254 1 9.80572 16.9371 0.891429 0 0 0 1 -7.03389 0 4
255 1 10.6971 14.2629 0 0 0 0 1 -3.34281 0 2
256 1 10.6919 16.06 1.78142 -9.40072 -0.691429 -2.14305 1 -7.31935 0.0581622 4
257 1 12.4695 14.3012 1.77241 -0.125521 1.38086 5.47583 1 -7.2837 0.0198599 4
258 1 12.48 16.0457 0 0 0 0 1 -3.32208 0 2
259 1 11.5886 15.1543 0.891429 0 0 0 1 -7.03953 0 4
260 1 11.6337 16.9428 2.70661 -13.5836 -0.652204 0.601613 1 -7.3456 0.115337 4
261 1 8.94393 16.0611 3.566 -6.70465 -8.69517 -6.87455 1 -7.4094 0.104454 4
262 1 10.7466 14.2916 3.53037 -3.90035 -5.47764 10.6172 1 -7.25432 0.0983071 4
263 1 12.4722 16.0923 3.59659 7.8052 3.50791 0.0366178 1 -7.26858 0.0455789 4
264 1 13.3714 13.3714 0.891429 0 0 0 1 -6.97465 0 4
265 1 15.1481 13.4135 2.71127 0.256963 -0.0344695 8.48696 1 -7.30827 0.0448743 4
266 1 16.9371 13.3714 0.891429 0 0 0 1 -7.04882 0 4
267 1 13.3882 15.1916 2.69952 0.806131 -2.03241 -1.6223 1 -7.33271 0.00461366 4
268 1 13.3714 16.9371 0.891429 0 0 0 1 -7.03477 0 4
269 1 14.2629 14.2629 0 0 0 0 1 -3.31123 0 2
270 1 14.2694 16.0294 1.744 -6.58993 -0.471916 4.91282 1 -7.34358 0.0421916 4
271 1 16.0379 14.2483 1.77586 -3.38357 1.00282 5.8077 1 -7.33086 0.0287459 4
272 1 16.0457 16.0457 0 0 0 0 1 -3.34234 0 2
273 1 15.1543 15.1543 0.891429 0 0 0 1 -7.02658 0 4
274 1 15.1911 16.9204 2.62501 -3.71297 -3.17707 10.0211 1 -7.35443 0.0773687 4
275 1 16.9569 15.1547 2.66106 -8.99581 5.57689 6.26841 1 -7.30673 0.094185 4
276 1 16.9371 16.9371 0.891429 0 0 0 1 -7.03865 0 4
277 1 14.2655 14.2737 3.56506 6.12578 2.695 -1.49115 1 -7.37648 0.0292613 4
278 1 16.0512 16.0399 3.52748 0.683491 -2.90218 -0.521961 1 -7.30209 0.00570281 4
279 1 18.6993 13.3206 2.67044 -4.61934 -4.20491 -0.145682 1 -7.34864 0.0243 4
280 1 20.5029 13.3714 0.891429 0 0 0 1 -7.02647 0 4
281 1 17.8286 14.2629 0 0 0 0 1 -3.31253 0 2
282 1 17.7939 16.059 1.77846 6.4824 6.64754 3.22445 1 -7.33156 0.0601316 4
283 1 19.5805 14.1957 1.77772 3.35734 -5.02275 1.77157 1 -7.30725 0.0246719 4
284 1 19.6114 16.0457 0 0 0 0 1 -3.3322 0 2
285 1 18.72 15.1543 0.891429 0 0 0 1 -6.96852 0 4
286 1 18.716 16.9134 2.72049 4.31353 4.05232 -0.462062 1 -7.31394 0.0219351 4
287 1 20.4865 15.1308 2.69079 8.24965 -5.91097 -0.993464 1 -7.27654 0.0647219 4
288 1 20.5029 16.9371 0.891429 0 0 0 1 -7.04006 0 4
289 1 17.8455 14.262 3.57809 -4.74665 -2.13427 0.776245 1 -7.3983 0.017234 4
290 1 19.6158 15.9907 3.59246 -4.24911 5.79725 6.06751 1 -7.3745 0.0550708 4
293 1 0 17.8286 0 0 0 0 1 -3.3427 0 2
294 1 1.75191 17.8243 1.77787 -1.0328 5.16645 -4.70753 1 -7.31288 0.0310713 4
295 1 1.78286 19.6114 0 0 0 0 1 -3.33744 0 2
296 1 0.891429 18.72 0.891429 0 0 0 1 -7.01182 0 4
297 1 0.9281 20.491 2.6571 -0.546928 -3.1729 -2.42311 1 -7.31051 0.0101069 4
298 1 2.65817 18.7406 2.71104 5.47737 3.61823 7.48272 1 -7.24483 0.0616727 4
299 1 2.67429 20.5029 0.891429 0 0 0 1 -7.03317 0 4
300 1 3.56572 17.8286 0 0 0 0 1 -3.32297 0 2
301 1 3.51312 19.6198 1.76958 0.232294 7.76294 9.44302 1 -7.33149 0.0930451 4
302 1 1.74532 19.6563 3.64728 2.63486 -0.034051 1.00805 1 -7.32175 0.00495439 4
303 1 3.56183 17.8577 3.61476 -2.28436 7.04668 5.30334 1 -7.36209 0.051661 4
305 1 0.0179488 19.6143 1.79308 -9.43615 0.721164 -8.59711 1 -7.34232 0.101749 4
27 1 5.38475 21.4116 1.77433 -2.60212 -2.38659 0.383526 1 -7.33896 0.00785124 4
307 1 5.36542 17.8052 1.81642 -0.912056 -7.34272 -5.68734 1 -7.33548 0.0542091 4
308 1 5.34857 19.6114 0 0 0 0 1 -3.33749 0 2
309 1 4.45714 18.72 0.891429 0 0 0 1 -6.9498 0 4
310 1 4.45623 20.4895 2.65609 4.34867 5.45962 -7.81349 1 -7.2699 0.0683231 4
311 1 6.24115 18.6873 2.66879 4.11476 -0.635789 0.517861 1 -7.3832 0.010957 4
312 1 6.24 20.5029 0.891429 0 0 0 1 -7.02157 0 4
313 1 7.13143 17.8286 0 0 0 0 1 -3.32206 0 2
314 1 7.13286 19.5758 1.76112 -4.09966 -1.7404 -0.290575 1 -7.32977 0.0123991 4
315 1 8.02286 18.72 0.891429 0 0 0 1 -7.04195 0 4
316 1 8.04582 20.4758 2.69634 0.140965 -2.60291 3.23276 1 -7.35356 0.0107342 4
317 1 5.41064 19.5861 3.54302 2.06169 3.66143 -2.98722 1 -7.37659 0.0165442 4
318 1 7.11008 17.8062 3.55877 -2.04139 -8.233 5.99793 1 -7.32824 0.0671752 4
320 1 8.89822 21.3706 1.79753 1.80294 3.00302 -1.46668 1 -7.33628 0.0089753 4
321 1 12.4836 21.4061 1.77447 -0.922331 -3.80615 -1.67268 1 -7.30154 0.0112879 4
322 1 8.91303 17.8206 1.78173 -9.21787 -2.19103 -3.9482 1 -7.32222 0.0655776 4
323 1 8.91429 19.6114 0 0 0 0 1 -3.33207 0 2
324 1 9.84638 18.6917 2.66415 0.185764 -1.9418 -5.39557 1 -7.3026 0.0204886 4
325 1 9.80572 20.5029 0.891429 0 0 0 1 -7.02304 0 4
326 1 10.6971 17.8286 0 0 0 0 1 -3.32595 0 2
327 1 10.6672 19.622 1.75762 -1.35799 -0.101198 -3.15566 1 -7.36795 0.00735245 4
328 1 12.496 17.8215 1.77561 -2.54215 4.19784 -6.13694 1 -7.33915 0.0384325 4
329 1 12.48 19.6114 0 0 0 0 1 -3.33354 0 2
330 1 11.5886 18.72 0.891429 0 0 0 1 -7.00998 0 4
331 1 11.546 20.4925 2.68628 1.31137 1.67362 -3.51915 1 -7.27407 0.0105222 4
332 1 8.90259 19.5542 3.56295 -6.05385 2.39931 4.37923 1 -7.31993 0.0383311 4
333 1 10.7479 17.8246 3.59808 5.13465 5.60185 -1.37949 1 -7.31828 0.0371267 4
334 1 12.5134 19.6044 3.55322 -5.15537 -0.766354 -3.41334 1 -7.29027 0.0241601 4
335 1 16.0508 21.3831 1.76161 0.0290455 0.103287 2.72137 1 -7.35226 0.00461675 4
337 1 13.4104 18.737 2.69197 0.902613 8.486 -0.378803 1 -7.32002 0.0454187 4
338 1 13.3714 20.5029 0.891429 0 0 0 1 -7.03561 0 4
339 1 14.2629 17.8286 0 0 0 0 1 -3.33593 0 2
340 1 14.2768 19.6286 1.76578 -3.73433 -2.25892 -3.88411 1 -7.38067 0.021246 4
341 1 16.0888 17.8329 1.76297 -4.58991 -1.99561 0.829426 1 -7.35071 0.0160198 4
342 1 16.0457 19.6114 0 0 0 0 1 -3.31302 0 2
343 1 15.1543 18.72 0.891429 0 0 0 1 -7.02627 0 4
344 1 15.1444 20.5041 2.65956 -0.744948 -4.08878 0.553886 1 -7.36754 0.0109422 4
345 1 16.9894 18.7033 2.69666 -3.03435 2.8799 1.77842 1 -7.38402 0.0128617 4
346 1 16.9371 20.5029 0.891429 0 0 0 1 -7.04157 0 4
347 1 14.2816 17.7764 3.54259 3.65425 -2.12879 -5.5657 1 -7.30227 0.0304131 4
348 1 16.0688 19.6004 3.5621 4.67053 1.2921 -1.28619 1 -7.34263 0.0156463 4
304 1 21.4048 17.8364 3.59018 -6.11919 -5.52075 -1.73476 1 -7.4089 0.0441503 4
351 1 17.8286 17.8286 0 0 0 0 1 -3.32415 0 2
352 1 17.8393 19.6039 1.81417 3.01766 -0.00286889 3.93596 1 -7.30233 0.0153105 4
353 1 19.6105 17.7805 1.77954 -1.40185 5.43227 2.60775 1 -7.30285 0.0238234 4
354 1 19.6114 19.6114 0 0 0 0 1 -3.35048 0 2
355 1 18.72 18.72 0.891429 0 0 0 1 -6.99033 0 4
356 1 18.7654 20.4969 2.71826 -2.18137 2.38837 8.10629 1 -7.30799 0.0474131 4
357 1 20.5059 18.6938 2.72955 -0.288133 4.64085 0.47254 1 -7.2853 0.0135961 4
358 1 20.5029 20.5029 0.891429 0 0 0 1 -7.02128 0 4
359 1 17.862 17.807 3.58079 1.67507 -6.1231 2.07497 1 -7.38228 0.0277625 4
360 1 19.5983 19.5792 3.58326 -3.30612 0.69137 -0.713371 1 -7.33174 0.00741766 4
361 1 0.932334 0.911147 4.43788 1.39337 1.0772 -6.54219 1 -7.28384 0.0285706 4
362 1 0.912448 2.69406 6.28616 1.85412 -8.68915 -3.03636 1 -7.3359 0.0548722 4
363 1 2.6919 0.920866 6.28083 -5.05949 3.11381 -4.8048 1 -7.297 0.0363374 4
364 1 2.74037 2.72969 4.51353 -2.39258 13.7276 -0.876045 1 -7.29385 0.121336 4
365 1 3.61707 1.77497 5.38785 -0.583112 -0.742524 -2.33558 1 -7.35746 0.0039501 4
366 1 1.76483 3.56943 5.37411 -2.24827 -4.42932 3.91592 1 -7.30592 0.0249021 4
367 1 1.79386 1.80489 7.15725 -5.98484 -1.79952 -0.893571 1 -7.37869 0.0248068 4
368 1 0.918391 0.905125 8.07907 -8.99425 -3.00308 1.6441 1 -7.30429 0.0576479 4
369 1 2.70396 2.6633 8.06205 -1.9076 6.00096 -5.38529 1 -7.34587 0.0427307 4
370 1 3.56246 3.51385 7.19667 -3.33455 0.402714 -8.75716 1 -7.38996 0.0547543 4
411 1 0.0228731 1.80578 5.36568 -1.67195 1.14721 -5.91786 1 -7.25926 0.0243571 4
371 1 -0.0475498 3.56659 7.20212 6.44249 -0.617323 -2.5183 1 -7.2738 0.0300188 4
651 1 3.5946 -0.0262672 7.19845 6.91394 1.88995 -1.40598 1 -7.31944 0.0332073 4
710 1 -0.0182335 0.00448219 7.14946 -3.57037 -2.03963 -4.69048 1 -7.34146 0.0242175 4
652 1 1.7689 0.0180344 5.37706 -8.30842 2.996 -7.40141 1 -7.32368 0.08265 4
372 1 4.45319 0.883926 4.48985 -1.93119 6.00773 -6.40419 1 -7.32032 0.0503144 4
373 1 4.44689 2.67023 6.33711 -5.16532 -0.575431 -4.0643 1 -7.32673 0.0270943 4
374 1 6.26694 0.869605 6.23676 3.49127 3.37844 4.8693 1 -7.34166 0.0294488 4
375 1 6.25404 2.63503 4.47305 0.985663 -5.6415 2.30007 1 -7.34902 0.0237072 4
376 1 7.16031 1.77336 5.39597 -12.6217 -4.90003 -2.5721 1 -7.3773 0.11822 4
377 1 8.04129 0.868652 4.49483 1.57994 -0.211673 -6.96701 1 -7.34445 0.0317937 4
378 1 7.98207 2.68671 6.2758 -0.35154 -2.99195 5.8136 1 -7.35413 0.0266855 4
379 1 5.37751 3.54323 5.38669 1.10888 4.49466 6.49307 1 -7.31861 0.039581 4
380 1 5.35155 1.7448 7.16887 -2.50045 -0.0437067 3.50265 1 -7.31167 0.011529 4
381 1 4.49289 0.869204 8.05889 -5.98625 -0.129256 -4.11974 1 -7.30594 0.0328791 4
382 1 6.28777 2.65209 8.06031 4.3792 4.28983 -1.07142 1 -7.27825 0.0241053 4
383 1 7.99572 0.882825 8.0619 1.24017 -5.29047 2.79339 1 -7.34384 0.0232353 4
384 1 7.13406 3.55725 7.18115 -0.644438 -2.2806 5.4815 1 -7.37104 0.0221978 4
665 1 7.08815 -0.0268698 7.15414 0.304151 1.24898 -3.4255 1 -7.31672 0.00833209 4
386 1 9.81791 0.888016 6.2578 4.49135 3.76844 -1.34384 1 -7.30046 0.0225189 4
387 1 9.80945 2.66384 4.46737 0.149597 4.28658 6.3301 1 -7.36599 0.0363916 4
388 1 10.7267 1.78253 5.32392 -3.1269 -0.253881 2.18471 1 -7.34972 0.00909669 4
389 1 11.6023 0.89287 4.43992 -3.48759 0.768229 0.348496 1 -7.36736 0.00801367 4
390 1 11.6178 2.65538 6.25184 -1.26234 -3.85639 2.29482 1 -7.34624 0.0135262 4
391 1 8.88795 3.54256 5.32626 3.32263 5.07826 -4.85753 1 -7.3334 0.0376095 4
392 1 12.511 3.54152 5.37746 2.43817 -0.282378 -1.87422 1 -7.38112 0.00593613 4
393 1 8.86494 1.76232 7.13644 -0.158778 -11.1994 -7.66518 1 -7.3287 0.114655 4
394 1 9.80212 2.6435 8.01756 -3.92632 -1.71576 -0.798151 1 -7.2712 0.0118241 4
395 1 12.5014 1.77227 7.1717 4.32948 3.36139 1.72469 1 -7.34361 0.0205512 4
396 1 11.6317 0.924909 8.07159 7.4165 -1.9042 -0.400764 1 -7.34653 0.0365931 4
397 1 10.6813 3.55673 7.1287 -6.24165 -0.685602 -8.40557 1 -7.31702 0.0685179 4
398 1 13.4012 0.900652 6.24099 3.8144 -1.5971 8.12676 1 -7.32732 0.0517513 4
399 1 13.3754 2.6843 4.46106 0.870219 13.4092 -2.63393 1 -7.24357 0.116705 4
400 1 14.3301 1.7784 5.38659 2.00252 -4.69449 0.186363 1 -7.32488 0.0162348 4
401 1 15.1415 0.873727 4.45145 -8.67175 -6.04393 -3.00432 1 -7.31345 0.0751606 4
402 1 15.2377 2.66052 6.268 -2.16799 4.76365 -1.1253 1 -7.43808 0.017838 4
403 1 17.0259 0.841926 6.27011 0.222775 -0.660997 1.76865 1 -7.3228 0.00224986 4
404 1 16.9561 2.66244 4.46543 0.790958 -3.96137 3.80931 1 -7.27712 0.0191888 4
405 1 16.0991 3.5573 5.37101 1.01726 1.25385 -2.977 1 -7.33799 0.00713893 4
406 1 13.3835 2.69196 8.0603 -0.301183 -5.86561 0.615317 1 -7.30692 0.0217069 4
407 1 16.1032 1.77894 7.18868 4.91052 -4.52743 0.402113 1 -7.28036 0.0278676 4
408 1 15.1704 0.860758 8.08224 -2.7295 1.81251 -3.89801 1 -7.35759 0.0161394 4
409 1 16.952 2.66924 8.05111 3.26793 2.5461 -0.301593 1 -7.40135 0.0107387 4
410 1 14.3473 3.53852 7.16081 10.655 -2.20817 -10.573 1 -7.35369 0.143278 4
412 1 17.8817 1.74004 5.39946 5.24569 -1.0256 1.59692 1 -7.31657 0.0193694 4
413 1 18.7322 0.921199 4.47199 -10.9557 -0.406439 -6.29398 1 -7.37081 0.0994681 4
414 1 18.7297 2.67978 6.24277 -3.39084 7.62079 -3.38309 1 -7.38867 0.0504287 4
415 1 20.4906 0.882714 6.27721 -3.08819 2.73504 -4.80296 1 -7.31153 0.0249504 4
416 1 20.4955 2.69309 4.48048 -1.41729 0.0235132 6.53242 1 -7.32185 0.0278111 4
417 1 19.6326 3.55316 5.38147 -6.3598 -1.83927 -10.9862 1 -7.40219 0.102406 4
418 1 19.6 1.80733 7.16522 4.24952 -3.82938 -0.896901 1 -7.3351 0.020868 4
419 1 18.7918 0.908886 8.07593 0.813706 -1.98178 -0.272808 1 -7.26975 0.002903 4
420 1 20.495 2.64745 8.07347 0.243175 -2.09443 10.8105 1 -7.31185 0.0755083 4
421 1 17.838 3.54634 7.15554 -4.35565 -3.49976 -1.95518 1 -7.33812 0.0218115 4
423 1 0.872228 4.49067 4.47935 -1.94565 0.584512 -5.10693 1 -7.37789 0.0188022 4
424 1 0.912015 6.24987 6.28754 -0.268191 0.550584 -4.38154 1 -7.37268 0.0121827 4
425 1 2.65815 4.45495 6.31762 -0.45668 2.55948 -12.4825 1 -7.25457 0.10119 4
426 1 2.65764 6.27132 4.47929 -2.57937 -8.38733 4.02338 1 -7.3037 0.0580027 4
427 1 3.57999 5.32876 5.39461 0.368275 -0.977455 4.2108 1 -7.23052 0.0117152 4
428 1 1.79897 7.12135 5.37096 -3.10142 -2.22037 -6.25971 1 -7.3585 0.0334447 4
429 1 0.882183 8.01968 4.52467 2.27008 -1.08964 -8.52777 1 -7.30665 0.0492112 4
430 1 2.69075 8.03402 6.28817 8.63864 -6.52273 -6.68731 1 -7.35788 0.100766 4
431 1 1.76776 5.37463 7.18645 7.9544 4.26435 4.21679 1 -7.39959 0.0617687 4
432 1 0.916219 4.48261 8.06167 -0.250598 -6.46827 2.68714 1 -7.31976 0.0305749 4
433 1 2.66933 6.27923 8.07258 -3.39075 -0.52505 5.59596 1 -7.33152 0.0268188 4