ITEM: TIMESTEP
49125700
ITEM: NUMBER OF ATOMS
3060
ITEM: BOX BOUNDS pp pp mm
0.0000000000000000e+00 2.1394294200000001e+01
0.0000000000000000e+00 2.1394294200000001e+01
-5.3491084073550004e-03 5.3485735499999997e+01
ITEM: ATOMS id type x y z vx vy vz c_clusts c_atom_pe c_atom_ke c_atom_coord
1 1 0 0 0 0 0 0 1 -3.33199 0 2
2 1 1.78286 1.78286 0 0 0 0 1 -3.33917 0 2
3 1 0.891429 0.891429 0.891429 0 0 0 1 -7.02234 0 4
4 1 0.907051 2.74242 2.6699 -5.0804 4.55057 -0.187912 1 -7.32661 0.0289761 4
5 1 2.69838 0.926285 2.6612 -10.1645 -4.02908 -10.1917 1 -7.39787 0.139063 4
6 1 2.67429 2.67429 0.891429 0 0 0 1 -7.01825 0 4
7 1 3.56572 0 0 0 0 0 1 -3.35265 0 2
8 1 3.57797 1.80327 1.81332 -3.12063 -4.80483 -6.72002 1 -7.346 0.0485389 4
9 1 0 3.56572 0 0 0 0 1 -3.33014 0 2
10 1 1.7967 3.57295 1.79827 -5.36007 -5.50422 0.866518 1 -7.38349 0.0372072 4
11 1 3.56572 3.56572 0 0 0 0 1 -3.33315 0 2
12 1 1.80583 1.79357 3.57695 6.49124 2.39168 2.52964 1 -7.29708 0.03377 4
13 1 3.58841 3.60399 3.57404 5.15078 8.84163 2.46466 1 -7.29821 0.0689521 4
292 1 1.79587 0.00968006 1.77892 5.33631 -0.933388 -3.27153 1 -7.38436 0.0249284 4
56 1 -0.00362834 3.61108 3.58319 3.80404 3.88909 -0.371058 1 -7.39164 0.0185068 4
55 1 0.0259037 1.79591 1.78792 -3.80991 0.708577 0.688046 1 -7.33458 0.00964193 4
291 1 3.55777 0.0326395 3.54665 -0.866594 -7.28559 -6.04954 1 -7.29342 0.0562846 4
350 1 0.00616455 0.00292423 3.56582 -1.2875 0.905966 -7.87367 1 -7.34784 0.0401297 4
14 1 5.34857 1.78286 0 0 0 0 1 -3.3252 0 2
15 1 4.45714 0.891429 0.891429 0 0 0 1 -7.00031 0 4
16 1 4.48382 2.67744 2.71077 -3.4793 -13.2537 5.82011 1 -7.3359 0.137954 4
17 1 6.272 0.869364 2.67055 -4.10789 0.727967 7.93274 1 -7.37003 0.0500014 4
18 1 6.24 2.67429 0.891429 0 0 0 1 -7.01496 0 4
19 1 7.13143 0 0 0 0 0 1 -3.3176 0 2
20 1 7.15501 1.7666 1.74996 -4.38882 -1.50078 2.95033 1 -7.33864 0.0188088 4
21 1 8.02286 0.891429 0.891429 0 0 0 1 -7.02637 0 4
22 1 7.98086 2.6235 2.66761 -4.21192 3.46391 -0.0692203 1 -7.33326 0.0185132 4
23 1 5.35697 3.58391 1.79223 -1.81994 -4.12256 8.77951 1 -7.34324 0.0606165 4
24 1 7.13143 3.56572 0 0 0 0 1 -3.32524 0 2
25 1 5.38691 1.7543 3.55528 7.14207 -5.10957 -3.74659 1 -7.32245 0.0567365 4
26 1 7.12213 3.54095 3.52978 1.65196 -1.98914 -2.26255 1 -7.36976 0.00734759 4
306 1 7.20661 0.0343424 3.51611 5.49991 -4.4935 -6.02792 1 -7.31908 0.0540119 4
28 1 8.91429 1.78286 0 0 0 0 1 -3.33445 0 2
29 1 9.82968 0.868495 2.6625 3.1468 -8.09758 -2.45105 1 -7.36388 0.0507158 4
30 1 9.80572 2.67429 0.891429 0 0 0 1 -6.97586 0 4
31 1 10.6971 0 0 0 0 0 1 -3.35085 0 2
32 1 10.7055 1.75296 1.79907 -7.62953 -2.61085 1.61085 1 -7.35909 0.0420891 4
33 1 12.48 1.78286 0 0 0 0 1 -3.34361 0 2
34 1 11.5886 0.891429 0.891429 0 0 0 1 -7.02569 0 4
35 1 11.5704 2.66285 2.6686 -1.53325 5.11302 -0.862517 1 -7.35452 0.0181983 4
36 1 8.92353 3.56708 1.78212 8.30008 -4.57081 2.9463 1 -7.2679 0.0612868 4
37 1 10.6971 3.56572 0 0 0 0 1 -3.34543 0 2
38 1 12.4895 3.56039 1.77609 -1.39587 -4.64007 -8.11635 1 -7.39993 0.0556162 4
39 1 8.93132 1.76787 3.53385 -4.39964 -0.191255 5.59509 1 -7.29345 0.031556 4
40 1 12.4381 1.80535 3.595 -0.884831 2.65791 -10.0708 1 -7.27993 0.0680115 4
41 1 10.6739 3.54002 3.57405 0.506444 0.266041 1.97393 1 -7.30129 0.00262893 4
319 1 10.7362 -0.0117089 3.57718 -1.39453 -9.45449 -0.210033 1 -7.36962 0.0568749 4
42 1 13.4019 0.885912 2.67246 -0.00529866 -0.859539 0.841976 1 -7.25504 0.000901123 4
43 1 13.3714 2.67429 0.891429 0 0 0 1 -7.04522 0 4
44 1 14.2629 0 0 0 0 0 1 -3.31776 0 2
45 1 14.2493 1.79757 1.77659 -3.77699 -8.73542 -3.88822 1 -7.34771 0.0657852 4
46 1 16.0457 1.78286 0 0 0 0 1 -3.32015 0 2
47 1 15.1543 0.891429 0.891429 0 0 0 1 -6.99635 0 4
48 1 15.1718 2.69856 2.69017 -0.852353 -2.13839 5.16175 1 -7.36631 0.0198821 4
49 1 16.9105 0.90578 2.67735 -5.47757 0.0554593 0.88639 1 -7.34259 0.0191661 4
50 1 16.9371 2.67429 0.891429 0 0 0 1 -7.00865 0 4
51 1 14.2629 3.56572 0 0 0 0 1 -3.33948 0 2
52 1 16.0342 3.56459 1.76982 -6.86268 5.46776 -1.92617 1 -7.37058 0.0502317 4
53 1 16.0374 1.82857 3.56459 -11.5428 -1.87734 -3.57646 1 -7.40841 0.0930854 4
54 1 14.2688 3.58025 3.56888 4.59712 5.66342 -5.04442 1 -7.3083 0.0489563 4
336 1 14.3058 -0.00563343 3.57324 -0.0642085 -6.73943 -8.34768 1 -7.37771 0.0716462 4
57 1 17.8286 0 0 0 0 0 1 -3.32864 0 2
58 1 17.8095 1.78075 1.76751 -4.12314 5.37025 0.352895 1 -7.34992 0.0286094 4
59 1 19.6114 1.78286 0 0 0 0 1 -3.33516 0 2
60 1 18.72 0.891429 0.891429 0 0 0 1 -7.04265 0 4
61 1 18.6829 2.71383 2.6768 10.2434 4.07661 0.565182 1 -7.31865 0.0758521 4
62 1 20.5098 0.923135 2.6473 0.976445 5.69475 -5.9836 1 -7.36076 0.0430638 4
63 1 20.5029 2.67429 0.891429 0 0 0 1 -6.98929 0 4
64 1 17.8286 3.56572 0 0 0 0 1 -3.33934 0 2
65 1 19.6077 3.57466 1.79317 7.0592 -1.07386 3.04303 1 -7.32608 0.0374983 4
66 1 19.6336 1.83601 3.55893 -2.75886 -0.395028 2.21243 1 -7.3495 0.00788128 4
67 1 17.8476 3.57299 3.57653 6.45796 -2.85031 4.04057 1 -7.36673 0.041177 4
68 1 19.6238 0.0193087 1.76133 -2.20862 2.27498 -2.1201 1 -7.37892 0.00905528 4
349 1 17.8458 0.0499139 3.55456 -2.48524 3.16384 -5.04133 1 -7.24141 0.0258937 4
69 1 1.78286 5.34857 0 0 0 0 1 -3.33797 0 2
70 1 0.891429 4.45714 0.891429 0 0 0 1 -7.01744 0 4
71 1 0.861995 6.21026 2.63202 -1.5675 -12.0207 -4.99853 1 -7.29478 0.10702 4
72 1 2.65949 4.43906 2.67175 1.91491 -14.2774 6.65436 1 -7.41397 0.156722 4
73 1 2.67429 6.24 0.891429 0 0 0 1 -7.01583 0 4
74 1 3.53273 5.35578 1.80563 -2.92759 -0.754291 2.34391 1 -7.30411 0.00910838 4
75 1 0 7.13143 0 0 0 0 1 -3.34729 0 2
76 1 1.79257 7.14026 1.78359 -1.97391 -1.98497 -8.32023 1 -7.32466 0.0479658 4
77 1 0.891429 8.02286 0.891429 0 0 0 1 -7.02902 0 4
78 1 2.64689 7.99611 2.6889 0.993348 5.15915 -3.6433 1 -7.35351 0.025443 4
79 1 3.56572 7.13143 0 0 0 0 1 -3.33641 0 2
80 1 1.78528 5.33042 3.59191 -1.16024 -11.1672 1.39619 1 -7.25835 0.0796714 4
81 1 3.58425 7.12205 3.55302 -0.0406493 0.565377 1.95623 1 -7.39083 0.00258191 4
128 1 0.00397074 5.33466 1.77533 -2.57476 -4.52327 -1.38387 1 -7.41635 0.0180531 4
82 1 0.0519423 7.11921 3.56043 -0.250806 -6.51242 -1.56146 1 -7.25421 0.0279548 4
83 1 5.34857 5.34857 0 0 0 0 1 -3.34133 0 2
84 1 4.45714 4.45714 0.891429 0 0 0 1 -6.98877 0 4
85 1 4.47974 6.25818 2.689 2.52115 -10.1704 -3.91851 1 -7.33969 0.0778958 4
86 1 6.25872 4.4624 2.67588 1.34121 4.1572 -6.0642 1 -7.37963 0.0347661 4
87 1 6.24 6.24 0.891429 0 0 0 1 -7.00502 0 4
88 1 7.13052 5.34942 1.79683 4.37981 7.67101 -5.79677 1 -7.37832 0.0694812 4
89 1 8.02286 4.45714 0.891429 0 0 0 1 -7.00644 0 4
90 1 8.01387 6.26512 2.61553 1.1167 1.60023 6.69878 1 -7.34673 0.0303006 4
91 1 5.36468 7.13545 1.77641 -4.99328 -2.2943 -0.750284 1 -7.35669 0.0191456 4
92 1 4.45714 8.02286 0.891429 0 0 0 1 -7.01632 0 4
93 1 6.29143 8.0168 2.71784 -14.687 1.07682 4.09633 1 -7.26941 0.145427 4
94 1 7.13143 7.13143 0 0 0 0 1 -3.34822 0 2
95 1 8.02286 8.02286 0.891429 0 0 0 1 -7.01861 0 4
96 1 5.35962 5.33383 3.62036 3.99833 6.05632 -4.06015 1 -7.32519 0.0430411 4
97 1 7.16563 7.13873 3.55213 7.36589 -1.56045 -2.42019 1 -7.33571 0.0389319 4
98 1 8.91429 5.34857 0 0 0 0 1 -3.3395 0 2
99 1 9.84725 4.44184 2.66056 -1.50863 -3.62024 -0.169775 1 -7.32726 0.00959219 4
100 1 9.80572 6.24 0.891429 0 0 0 1 -7.01849 0 4
101 1 10.7375 5.34471 1.79389 1.70938 -6.22721 0.76713 1 -7.37197 0.0263215 4
102 1 12.48 5.34857 0 0 0 0 1 -3.33256 0 2
103 1 11.5886 4.45714 0.891429 0 0 0 1 -7.00225 0 4
104 1 11.6043 6.23302 2.66951 4.61514 2.27205 0.231164 1 -7.39024 0.0165037 4
105 1 8.93699 7.14134 1.73587 9.80903 0.129175 -4.49131 1 -7.35677 0.0724539 4
106 1 9.77259 7.9934 2.67642 4.74074 3.6309 -2.05323 1 -7.36396 0.0248185 4
107 1 10.6971 7.13143 0 0 0 0 1 -3.30667 0 2
108 1 12.4867 7.13092 1.77637 2.43034 -9.67063 9.12123 1 -7.35716 0.11367 4
109 1 11.5886 8.02286 0.891429 0 0 0 1 -7.03897 0 4
110 1 8.89448 5.34875 3.50919 -2.31792 -1.91692 -6.5417 1 -7.19675 0.0322673 4
111 1 12.5031 5.33502 3.56608 -7.38134 6.54542 4.9386 1 -7.3924 0.0757596 4
112 1 10.6952 7.08871 3.55121 1.41041 6.52934 3.18983 1 -7.36505 0.0341068 4
113 1 13.3663 4.45673 2.64919 2.39281 -12.6701 -1.50413 1 -7.38864 0.104891 4
114 1 13.3714 6.24 0.891429 0 0 0 1 -6.95183 0 4
115 1 14.2891 5.32359 1.82779 -9.37647 6.13418 -0.872319 1 -7.31046 0.078617 4
116 1 16.0457 5.34857 0 0 0 0 1 -3.34782 0 2
117 1 15.1543 4.45714 0.891429 0 0 0 1 -7.00565 0 4
118 1 15.1864 6.22046 2.64798 4.98928 8.15989 -5.65613 1 -7.27533 0.0768501 4
119 1 16.9437 4.46079 2.63815 6.07897 0.476465 -5.24803 1 -7.31883 0.0402851 4
120 1 16.9371 6.24 0.891429 0 0 0 1 -7.00712 0 4
121 1 13.3842 7.98335 2.67095 1.01343 -0.833982 8.29207 1 -7.39967 0.0438692 4
122 1 14.2629 7.13143 0 0 0 0 1 -3.34067 0 2
123 1 16.0771 7.14851 1.75193 2.7212 -4.50528 -4.58589 1 -7.30116 0.0303326 4
124 1 15.1543 8.02286 0.891429 0 0 0 1 -7.02339 0 4
125 1 16.9657 8.06105 2.71775 -2.23139 4.55187 9.27106 1 -7.33699 0.0694947 4
126 1 16.0954 5.30739 3.56331 -8.94702 -0.450163 4.23739 1 -7.28286 0.0611268 4
127 1 14.2696 7.11084 3.53973 -4.74508 1.47773 2.29729 1 -7.36106 0.0186585 4
129 1 17.8251 5.34137 1.78806 0.0962425 -4.90147 -1.29648 1 -7.37566 0.0160054 4
130 1 19.6114 5.34857 0 0 0 0 1 -3.31978 0 2
131 1 18.72 4.45714 0.891429 0 0 0 1 -7.00626 0 4
132 1 18.6944 6.24984 2.67803 0.351334 0.323878 -6.67324 1 -7.41991 0.0278601 4
133 1 20.5191 4.47936 2.68414 -2.1056 -2.83055 -8.08257 1 -7.37486 0.0484082 4
134 1 20.5029 6.24 0.891429 0 0 0 1 -6.98909 0 4
135 1 17.8286 7.13143 0 0 0 0 1 -3.31861 0 2
136 1 19.5607 7.11711 1.7808 -1.79438 -4.98645 5.44984 1 -7.30951 0.0359671 4
137 1 18.72 8.02286 0.891429 0 0 0 1 -7.01091 0 4
138 1 20.5243 8.03056 2.67336 -3.83099 4.06907 -4.17886 1 -7.26938 0.0303101 4
139 1 19.6067 5.36114 3.56852 -1.10371 -3.42709 4.45942 1 -7.27279 0.0204464 4
140 1 17.8195 7.1228 3.55985 6.01598 1.2922 5.19037 1 -7.32651 0.0403343 4
141 1 1.78286 8.91429 0 0 0 0 1 -3.3383 0 2
142 1 0.896335 9.82552 2.63886 1.00414 1.99638 -8.15432 1 -7.32716 0.0444952 4
143 1 2.67429 9.80572 0.891429 0 0 0 1 -7.03211 0 4
144 1 3.54667 8.92217 1.76241 3.34891 -4.36435 3.02049 1 -7.30546 0.024515 4
145 1 0 10.6971 0 0 0 0 1 -3.32921 0 2
146 1 1.8113 10.6934 1.79088 -1.88585 1.59809 7.92859 1 -7.3795 0.0429305 4
147 1 1.78286 12.48 0 0 0 0 1 -3.32039 0 2
148 1 0.891429 11.5886 0.891429 0 0 0 1 -6.99625 0 4
149 1 2.72724 11.5807 2.66804 -7.09618 -1.69868 -3.59516 1 -7.31721 0.0411838 4
150 1 3.56572 10.6971 0 0 0 0 1 -3.35006 0 2
151 1 3.62414 12.4827 1.78528 7.17434 -5.53966 -2.88409 1 -7.37215 0.0563152 4
152 1 1.74307 8.89432 3.57972 2.77481 3.20285 3.39281 1 -7.29048 0.0183423 4
153 1 1.82353 12.4816 3.53882 9.72207 -0.0181792 1.67537 1 -7.36517 0.0605782 4
154 1 3.59006 10.6756 3.61309 -0.645467 -1.74808 -12.1199 1 -7.32453 0.0935902 4
205 1 0.021523 8.88733 1.77539 7.79864 -5.71945 -1.6322 1 -7.35259 0.0598743 4
204 1 0.0274687 12.5029 1.75508 12.8013 -1.76385 -1.01066 1 -7.36555 0.104571 4
155 1 5.34857 8.91429 0 0 0 0 1 -3.33806 0 2
156 1 4.48832 9.80654 2.66879 2.65656 6.6795 -4.65731 1 -7.31622 0.0456634 4
157 1 6.24 9.80572 0.891429 0 0 0 1 -6.98424 0 4
158 1 7.18962 8.93897 1.79039 -2.68838 -3.55904 -5.22178 1 -7.30038 0.0293543 4
159 1 8.01933 9.83804 2.69583 -9.97546 -1.07345 -0.289072 1 -7.40854 0.0627068 4
160 1 5.341 10.7218 1.7591 -1.0978 5.29627 0.93433 1 -7.36808 0.0187528 4
161 1 5.34857 12.48 0 0 0 0 1 -3.31966 0 2
162 1 4.45714 11.5886 0.891429 0 0 0 1 -7.04888 0 4
163 1 6.24974 11.5762 2.67337 -2.60359 0.0279355 3.07282 1 -7.32983 0.0100968 4
164 1 7.13143 10.6971 0 0 0 0 1 -3.31895 0 2
165 1 7.15651 12.4958 1.75738 -3.83041 -4.38563 0.47207 1 -7.3057 0.0212426 4
166 1 8.02286 11.5886 0.891429 0 0 0 1 -7.02904 0 4
167 1 5.36034 8.91898 3.57375 -7.25586 -6.52221 1.39852 1 -7.3112 0.0604641 4
168 1 5.40995 12.4877 3.55366 2.65777 3.35839 -1.23738 1 -7.31833 0.0123699 4
169 1 7.11473 10.6732 3.55802 1.07716 -3.55953 -7.93084 1 -7.34726 0.047758 4
170 1 8.91429 8.91429 0 0 0 0 1 -3.2931 0 2
171 1 9.80572 9.80572 0.891429 0 0 0 1 -6.97369 0 4
172 1 10.682 8.88719 1.77289 -5.44878 7.52353 -6.6053 1 -7.32387 0.0808672 4
173 1 12.48 8.91429 0 0 0 0 1 -3.33249 0 2
174 1 11.5566 9.78433 2.64366 4.27781 2.65857 2.80228 1 -7.2952 0.0206773 4
175 1 8.86916 10.7388 1.78173 -4.07851 -1.94089 0.444696 1 -7.35264 0.0128214 4
176 1 8.91429 12.48 0 0 0 0 1 -3.34188 0 2
177 1 9.75853 11.6015 2.67533 3.34617 -0.416891 -7.89339 1 -7.38428 0.045858 4
178 1 10.6971 10.6971 0 0 0 0 1 -3.32773 0 2
179 1 10.6749 12.4752 1.79529 1.22897 -5.69409 4.75522 1 -7.33292 0.0351952 4
180 1 12.4699 10.6857 1.78984 6.71843 -0.872827 -0.734979 1 -7.33952 0.028905 4
181 1 12.48 12.48 0 0 0 0 1 -3.35021 0 2
182 1 11.5886 11.5886 0.891429 0 0 0 1 -6.99731 0 4
183 1 8.92008 8.93613 3.52398 -0.591168 1.3916 -3.57231 1 -7.37971 0.0093659 4
184 1 12.4726 8.84578 3.50686 7.79829 -1.76587 4.81537 1 -7.28577 0.0542254 4
185 1 8.91576 12.481 3.59996 3.81771 2.24184 -7.66055 1 -7.35083 0.0487265 4
186 1 10.6683 10.7333 3.57928 2.1248 4.60333 -3.8895 1 -7.26271 0.0254159 4
187 1 12.5046 12.4308 3.57887 -0.976331 9.80508 2.0896 1 -7.29686 0.0631509 4
188 1 13.3714 9.80572 0.891429 0 0 0 1 -7.00008 0 4
189 1 14.2793 8.88666 1.79153 3.56457 2.76086 1.16248 1 -7.34623 0.0134941 4
190 1 16.0457 8.91429 0 0 0 0 1 -3.345 0 2
191 1 15.1866 9.77008 2.7128 -3.04421 -6.27077 3.38261 1 -7.2426 0.0373654 4
192 1 16.9371 9.80572 0.891429 0 0 0 1 -6.98087 0 4
193 1 13.3939 11.578 2.69948 -0.119973 5.46122 3.93959 1 -7.39536 0.028233 4
194 1 14.2629 10.6971 0 0 0 0 1 -3.36477 0 2
195 1 14.2897 12.4742 1.81448 1.87528 -2.83688 -5.5416 1 -7.36812 0.0263124 4
196 1 16.0869 10.7554 1.77152 -5.5796 0.720846 -2.89725 1 -7.26084 0.0249254 4
197 1 16.0457 12.48 0 0 0 0 1 -3.31983 0 2
198 1 15.1543 11.5886 0.891429 0 0 0 1 -7.01432 0 4
199 1 16.9356 11.6392 2.67106 -0.853333 -4.20745 4.98767 1 -7.32457 0.0269558 4
200 1 16.0786 8.90415 3.58042 -0.719364 -9.76537 -3.82323 1 -7.38246 0.0687763 4
201 1 14.2416 10.6875 3.56345 1.09504 0.46647 -8.64706 1 -7.28224 0.0474217 4
202 1 16.0405 12.4959 3.58356 7.4692 -4.88429 4.23806 1 -7.37485 0.0607527 4
203 1 21.4191 10.7389 3.52901 8.45996 7.52218 0.470222 1 -7.37607 0.0799042 4
206 1 17.8305 8.91912 1.81407 6.3122 2.77865 0.722628 1 -7.36036 0.0299305 4
207 1 19.6114 8.91429 0 0 0 0 1 -3.35489 0 2
208 1 18.7324 9.84131 2.65907 -6.9624 -3.38037 10.7835 1 -7.37024 0.109662 4
209 1 20.5029 9.80572 0.891429 0 0 0 1 -6.98462 0 4
210 1 17.8286 10.6971 0 0 0 0 1 -3.32673 0 2
211 1 17.8171 12.4794 1.82146 -2.92682 2.19524 1.60439 1 -7.32401 0.00993358 4
212 1 19.6431 10.7263 1.77996 9.0968 0.411708 -1.75261 1 -7.36585 0.0535242 4
213 1 19.6114 12.48 0 0 0 0 1 -3.32481 0 2
214 1 18.72 11.5886 0.891429 0 0 0 1 -6.98665 0 4
215 1 20.5504 11.6181 2.6584 1.42155 7.52932 7.86644 1 -7.38636 0.0750598 4
216 1 19.5926 8.96593 3.55814 -0.736887 0.505865 3.87805 1 -7.32291 0.00985808 4
217 1 17.868 10.7048 3.57085 4.33893 -2.55806 1.72951 1 -7.31347 0.0176527 4
218 1 19.632 12.4999 3.53123 -4.14477 -0.536803 6.29738 1 -7.38738 0.0355556 4
219 1 0.921988 13.38 2.65729 3.12087 2.36635 0.411201 1 -7.35117 0.00965293 4
220 1 2.67429 13.3714 0.891429 0 0 0 1 -7.00994 0 4
221 1 0 14.2629 0 0 0 0 1 -3.31322 0 2
222 1 1.78312 14.256 1.76239 4.47322 -4.05146 -1.2974 1 -7.36182 0.0237189 4
223 1 1.78286 16.0457 0 0 0 0 1 -3.33025 0 2
224 1 0.891429 15.1543 0.891429 0 0 0 1 -7.02893 0 4
225 1 0.880938 16.9556 2.64694 -1.86171 -3.42543 1.62592 1 -7.328 0.0111061 4
226 1 2.65916 15.2157 2.63823 0.997598 0.654561 4.81223 1 -7.28115 0.0153 4
227 1 2.67429 16.9371 0.891429 0 0 0 1 -6.99646 0 4
228 1 3.56572 14.2629 0 0 0 0 1 -3.32169 0 2
229 1 3.56304 16.0652 1.80093 -5.90313 3.86504 -6.90056 1 -7.32238 0.0606263 4
230 1 1.76289 16.085 3.54544 0.406965 -3.49398 -0.861733 1 -7.33019 0.00816378 4
231 1 3.58303 14.2841 3.5536 2.39335 -10.4334 -2.99481 1 -7.30217 0.0769023 4
233 1 0.00165081 16.0259 1.74474 5.61077 3.34795 0.886365 1 -7.33968 0.0270601 4
232 1 0.0171867 14.2777 3.58684 -1.68346 -6.02936 0.675707 1 -7.27934 0.0246753 4
234 1 4.45072 13.3457 2.66027 -0.247807 -4.50453 0.120617 1 -7.35251 0.0126768 4
235 1 6.24 13.3714 0.891429 0 0 0 1 -6.98202 0 4
236 1 8.07239 13.3936 2.67643 -2.42435 3.8988 1.62785 1 -7.30885 0.0147689 4
237 1 5.31269 14.2722 1.79068 -2.51037 2.29065 -4.11229 1 -7.3085 0.0177142 4
238 1 5.34857 16.0457 0 0 0 0 1 -3.3549 0 2
239 1 4.45714 15.1543 0.891429 0 0 0 1 -7.03519 0 4
240 1 4.42305 16.9821 2.72586 -0.412111 5.98861 1.21075 1 -7.34656 0.0233405 4
241 1 6.25643 15.1568 2.65089 -2.54768 -2.19138 5.43514 1 -7.32712 0.0254159 4
242 1 6.24 16.9371 0.891429 0 0 0 1 -6.98419 0 4
243 1 7.13143 14.2629 0 0 0 0 1 -3.34335 0 2
244 1 7.16505 16.0617 1.78069 -3.33229 1.47376 -4.0419 1 -7.38631 0.018432 4
245 1 8.02286 15.1543 0.891429 0 0 0 1 -6.98596 0 4
246 1 8.00632 16.9366 2.70505 4.35534 -1.68513 7.3672 1 -7.32192 0.0473569 4
247 1 5.31529 16.0316 3.58949 6.45216 3.65553 -0.819631 1 -7.24267 0.0346474 4
248 1 7.13194 14.3069 3.53714 -2.03613 2.64204 -5.2547 1 -7.36485 0.0241116 4
249 1 9.80572 13.3714 0.891429 0 0 0 1 -7.00004 0 4
250 1 11.611 13.3849 2.64522 5.50439 -6.65414 3.40616 1 -7.30511 0.0536394 4
251 1 8.97098 14.263 1.79984 1.93657 -5.91133 -3.19626 1 -7.34191 0.030443 4
252 1 8.91429 16.0457 0 0 0 0 1 -3.31556 0 2
253 1 9.86239 15.1884 2.67083 0.726863 0.368067 4.66077 1 -7.36674 0.013934 4
254 1 9.80572 16.9371 0.891429 0 0 0 1 -7.04928 0 4
255 1 10.6971 14.2629 0 0 0 0 1 -3.34338 0 2
256 1 10.6919 16.06 1.78142 -9.40072 -0.691429 -2.14305 1 -7.28582 0.0581622 4
257 1 12.4695 14.3012 1.77241 -0.125521 1.38086 5.47583 1 -7.32137 0.0198599 4
258 1 12.48 16.0457 0 0 0 0 1 -3.32208 0 2
259 1 11.5886 15.1543 0.891429 0 0 0 1 -7.01082 0 4
260 1 11.6627 16.9489 2.68591 6.38602 -0.0120015 5.05481 1 -7.27838 0.0412871 4
261 1 8.97914 16.0983 3.61796 -1.61194 -0.965457 -6.00383 1 -7.23559 0.0246334 4
262 1 10.7579 14.3023 3.51935 1.17025 3.18154 -6.80205 1 -7.24895 0.0359511 4
263 1 12.4646 16.0381 3.59529 -6.32289 9.96922 0.886766 1 -7.33264 0.0872335 4
264 1 13.3714 13.3714 0.891429 0 0 0 1 -6.96438 0 4
265 1 15.1587 13.3793 2.64634 -2.79441 8.07016 8.37001 1 -7.31312 0.0890027 4
266 1 16.9371 13.3714 0.891429 0 0 0 1 -6.98935 0 4
267 1 13.3667 15.1842 2.69361 5.07566 4.85424 3.23645 1 -7.33529 0.0372215 4
268 1 13.3714 16.9371 0.891429 0 0 0 1 -7.01109 0 4
269 1 14.2629 14.2629 0 0 0 0 1 -3.31586 0 2
270 1 14.2694 16.0294 1.744 -6.58993 -0.471916 4.91282 1 -7.36806 0.0421916 4
271 1 16.0632 14.2603 1.75334 -3.37297 -3.55123 0.796961 1 -7.38973 0.0153262 4
272 1 16.0457 16.0457 0 0 0 0 1 -3.33194 0 2
273 1 15.1543 15.1543 0.891429 0 0 0 1 -7.03448 0 4
274 1 15.1928 16.9405 2.59825 3.16547 -2.43894 -3.43822 1 -7.2507 0.0172972 4
275 1 16.9819 15.119 2.63534 2.29347 3.76144 0.756168 1 -7.28471 0.0124362 4
276 1 16.9371 16.9371 0.891429 0 0 0 1 -7.04713 0 4
277 1 14.238 14.262 3.58477 0.447542 0.942522 -1.98556 1 -7.33129 0.00313148 4
278 1 16.0576 16.0412 3.55202 -2.14897 2.75542 -4.97253 1 -7.2982 0.0229902 4
279 1 18.7331 13.3748 2.68091 -4.75163 -10.5131 -1.73729 1 -7.37691 0.0847256 4
280 1 20.5029 13.3714 0.891429 0 0 0 1 -7.02644 0 4
281 1 17.8286 14.2629 0 0 0 0 1 -3.32375 0 2
282 1 17.7939 16.059 1.77846 6.4824 6.64754 3.22445 1 -7.33183 0.0601316 4
283 1 19.581 14.2606 1.77533 -3.81888 -12.8274 -0.772231 1 -7.38635 0.111864 4
284 1 19.6114 16.0457 0 0 0 0 1 -3.32523 0 2
285 1 18.72 15.1543 0.891429 0 0 0 1 -6.98677 0 4
286 1 18.7026 16.893 2.69334 -0.201716 0.51174 7.77402 1 -7.30752 0.0378049 4
287 1 20.4599 15.1484 2.66988 -2.12667 0.221675 6.49122 1 -7.31071 0.0290722 4
288 1 20.5029 16.9371 0.891429 0 0 0 1 -7.00791 0 4
289 1 17.8538 14.2652 3.55982 2.14224 0.960787 4.33141 1 -7.40337 0.0151084 4
290 1 19.6268 16.0072 3.55323 2.59479 -10.953 4.26861 1 -7.34539 0.0902035 4
293 1 0 17.8286 0 0 0 0 1 -3.35227 0 2
294 1 1.75191 17.8243 1.77787 -1.0328 5.16645 -4.70753 1 -7.34917 0.0310713 4
295 1 1.78286 19.6114 0 0 0 0 1 -3.34104 0 2
296 1 0.891429 18.72 0.891429 0 0 0 1 -6.99813 0 4
297 1 0.90618 20.5285 2.68819 5.62018 -6.89355 -6.72574 1 -7.38016 0.0773944 4
298 1 2.62148 18.7182 2.66595 4.11729 2.66937 5.52923 1 -7.31392 0.0340156 4
299 1 2.67429 20.5029 0.891429 0 0 0 1 -7.04223 0 4
300 1 3.56572 17.8286 0 0 0 0 1 -3.33584 0 2
301 1 3.51312 19.6198 1.76958 0.232294 7.76294 9.44302 1 -7.32158 0.0930451 4
302 1 1.75515 19.6385 3.59793 -5.51167 4.50083 11.6552 1 -7.31044 0.116069 4
303 1 3.56223 17.837 3.57196 3.26202 -1.58112 5.23297 1 -7.32552 0.0252236 4
305 1 0.0499906 19.6021 1.83198 1.02894 2.13706 -1.77494 1 -7.28269 0.00546251 4
27 1 5.37146 21.402 1.78256 6.13419 5.58044 -2.84686 1 -7.30719 0.0478485 4
307 1 5.34718 17.8587 1.81979 5.97187 -6.3853 4.45039 1 -7.35576 0.0599031 4
308 1 5.34857 19.6114 0 0 0 0 1 -3.34439 0 2
309 1 4.45714 18.72 0.891429 0 0 0 1 -6.98399 0 4
310 1 4.44135 20.4689 2.69635 0.722691 -0.24043 -3.27005 1 -7.26964 0.00701679 4
311 1 6.23854 18.7058 2.66521 -3.00291 -6.3398 -0.437282 1 -7.39935 0.030749 4
312 1 6.24 20.5029 0.891429 0 0 0 1 -7.00222 0 4
313 1 7.13143 17.8286 0 0 0 0 1 -3.32236 0 2
314 1 7.1496 19.6033 1.78172 -0.12093 -5.85321 -4.63907 1 -7.37605 0.0347287 4
315 1 8.02286 18.72 0.891429 0 0 0 1 -7.02005 0 4
316 1 8.04587 20.4814 2.6482 -0.744078 0.237045 8.80121 1 -7.374 0.0485935 4
317 1 5.3619 19.589 3.56203 10.9687 -4.74709 -3.02936 1 -7.37415 0.0946238 4
318 1 7.13436 17.8568 3.55044 -3.44049 -5.03296 -3.19615 1 -7.35817 0.0294924 4
320 1 8.9116 21.3598 1.78548 -5.94146 -1.09818 5.27497 1 -7.33533 0.0400421 4
321 1 12.4813 21.4078 1.79348 0.725084 3.58759 -3.13759 1 -7.31332 0.0144658 4
322 1 8.91303 17.8206 1.78173 -9.21787 -2.19103 -3.9482 1 -7.28736 0.0655776 4
323 1 8.91429 19.6114 0 0 0 0 1 -3.32643 0 2
324 1 9.82086 18.702 2.69483 6.2286 -0.463314 -2.29168 1 -7.33142 0.0275498 4
325 1 9.80572 20.5029 0.891429 0 0 0 1 -7.04345 0 4
326 1 10.6971 17.8286 0 0 0 0 1 -3.32595 0 2
327 1 10.6672 19.622 1.75762 -1.35799 -0.101198 -3.15566 1 -7.3533 0.00735245 4
328 1 12.496 17.8215 1.77561 -2.54215 4.19784 -6.13694 1 -7.4317 0.0384325 4
329 1 12.48 19.6114 0 0 0 0 1 -3.33541 0 2
330 1 11.5886 18.72 0.891429 0 0 0 1 -7.01966 0 4
331 1 11.5864 20.4788 2.68488 -12.199 1.14952 3.09562 1 -7.29094 0.0994146 4
332 1 8.94973 19.5717 3.54463 -5.52778 -7.51493 0.212524 1 -7.34154 0.0541982 4
333 1 10.7151 17.8056 3.59265 2.74421 -0.587966 2.76886 1 -7.3618 0.00967435 4
334 1 12.5182 19.6105 3.5863 3.77723 0.360673 -4.0146 1 -7.35217 0.0189931 4
335 1 16.0508 21.3831 1.76161 0.0290455 0.103287 2.72137 1 -7.39142 0.00461675 4
337 1 13.3927 18.6825 2.67086 3.87436 5.35788 5.32083 1 -7.28873 0.0448326 4
338 1 13.3714 20.5029 0.891429 0 0 0 1 -7.00979 0 4
339 1 14.2629 17.8286 0 0 0 0 1 -3.33593 0 2
340 1 14.2768 19.6286 1.76578 -3.73433 -2.25892 -3.88411 1 -7.34924 0.021246 4
341 1 16.0888 17.8329 1.76297 -4.58991 -1.99561 0.829426 1 -7.37263 0.0160198 4
342 1 16.0457 19.6114 0 0 0 0 1 -3.30993 0 2
343 1 15.1543 18.72 0.891429 0 0 0 1 -6.99703 0 4
344 1 15.1722 20.5101 2.6542 -6.21835 2.23336 0.0385132 1 -7.36449 0.0271734 4
345 1 16.9748 18.6952 2.67662 7.37006 -1.55477 3.70185 1 -7.3877 0.043843 4
346 1 16.9371 20.5029 0.891429 0 0 0 1 -7.05035 0 4
347 1 14.2663 17.8127 3.5799 -0.0664342 -8.04228 -3.86401 1 -7.30363 0.0495533 4
348 1 16.0339 19.5918 3.57181 4.34343 0.923985 -1.85436 1 -7.30893 0.014414 4
304 1 21.4223 17.846 3.5956 2.30505 3.15991 0.909353 1 -7.3073 0.0100367 4
351 1 17.8286 17.8286 0 0 0 0 1 -3.32012 0 2
352 1 17.836 19.6096 1.77913 -1.63006 -1.20152 6.03277 1 -7.38381 0.0252052 4
353 1 19.6105 17.7805 1.77954 -1.40185 5.43227 2.60775 1 -7.35725 0.0238234 4
354 1 19.6114 19.6114 0 0 0 0 1 -3.35033 0 2
355 1 18.72 18.72 0.891429 0 0 0 1 -6.99053 0 4
356 1 18.7509 20.4979 2.64705 5.70062 -2.50665 10.5778 1 -7.30056 0.0937811 4
357 1 20.5094 18.6822 2.69667 -1.16536 -1.39086 7.61491 1 -7.27573 0.0381419 4
358 1 20.5029 20.5029 0.891429 0 0 0 1 -6.9457 0 4
359 1 17.8344 17.8346 3.589 5.34879 -1.13406 -3.92766 1 -7.35373 0.0282097 4
360 1 19.6356 19.594 3.60017 -6.32424 -4.60039 -2.76159 1 -7.32785 0.0428142 4
361 1 0.908355 0.907342 4.496 4.53888 0.810087 -10.0343 1 -7.31055 0.0759017 4
362 1 0.886935 2.72999 6.29821 3.73964 -1.40202 -0.733784 1 -7.27752 0.0102632 4
363 1 2.71667 0.885714 6.30478 -2.06617 5.26311 -2.37756 1 -7.36577 0.0234171 4
364 1 2.73091 2.63848 4.50106 5.60209 10.5808 4.39285 1 -7.29324 0.101227 4
365 1 3.6037 1.78567 5.40859 2.84231 -0.0883549 -3.77587 1 -7.37311 0.0139073 4
366 1 1.79626 3.60149 5.37295 -6.73998 -2.59766 -4.04875 1 -7.23941 0.0426782 4
367 1 1.83269 1.8078 7.17858 -4.92995 1.02663 -4.80145 1 -7.34813 0.0301331 4
368 1 0.949927 0.924412 8.06082 0.455488 -2.17486 3.82691 1 -7.32978 0.0121888 4
369 1 2.70145 2.63859 8.1025 0.183353 0.451017 -5.45331 1 -7.32825 0.0186576 4
370 1 3.58547 3.55231 7.23346 -3.43219 -9.52283 -1.43403 1 -7.3502 0.0650564 4
411 1 0.0209684 1.7909 5.3975 2.09491 2.33897 -3.40323 1 -7.31078 0.0133457 4
371 1 -0.0358052 3.57759 7.19555 -9.79413 -3.67963 4.5843 1 -7.32785 0.0812144 4
651 1 3.56499 -0.0143848 7.17934 0.0773251 -5.08992 6.40322 1 -7.34927 0.0416493 4
710 1 0.0146297 0.0218522 7.20141 -5.75031 -2.58891 -8.68964 1 -7.33989 0.0717523 4
652 1 1.82061 0.00959196 5.41945 -5.85025 -0.150665 -4.96823 1 -7.32774 0.0366805 4
372 1 4.48681 0.846711 4.50018 -7.2004 2.85067 3.77209 1 -7.24121 0.0461844 4
373 1 4.4987 2.66189 6.31897 -8.26776 2.07852 8.79915 1 -7.36931 0.0934269 4
374 1 6.24006 0.858101 6.23118 2.23578 -0.149456 -2.93632 1 -7.31509 0.00849177 4
375 1 6.25735 2.66696 4.45743 -1.87104 -3.00804 2.48757 1 -7.29939 0.0116625 4
376 1 7.19493 1.78806 5.38244 3.25054 0.420652 6.42918 1 -7.33784 0.0324143 4
377 1 8.0462 0.881907 4.50638 -4.23639 -3.65957 3.52871 1 -7.28135 0.0272568 4
378 1 8.01629 2.69015 6.24546 -8.83609 1.84978 1.35536 1 -7.36672 0.0518699 4
379 1 5.35737 3.52701 5.3507 4.21347 -0.345754 4.30775 1 -7.36878 0.0226747 4
380 1 5.38313 1.75455 7.1534 -5.37379 -1.96128 0.755387 1 -7.34553 0.0207236 4
381 1 4.50989 0.874751 8.09391 1.06422 -1.86713 -3.82138 1 -7.35142 0.0119641 4
382 1 6.22671 2.64572 8.06822 11.4877 -3.20188 -0.303545 1 -7.30215 0.0885787 4
383 1 7.98917 0.911908 8.04902 -0.30082 -3.27134 0.229825 1 -7.36831 0.0067502 4
384 1 7.1286 3.58227 7.13998 2.33037 -4.49331 6.43324 1 -7.29755 0.041707 4
665 1 7.12201 -0.0201291 7.1738 -9.52689 -3.09409 -1.39464 1 -7.28154 0.0636618 4
386 1 9.79522 0.876453 6.25368 1.54873 -0.813524 0.863599 1 -7.29751 0.00236907 4
387 1 9.80536 2.64034 4.42975 1.16724 1.99277 3.55413 1 -7.34291 0.0111821 4
388 1 10.727 1.77623 5.33711 3.4645 2.37804 -5.39283 1 -7.32007 0.0290925 4
389 1 11.6126 0.875039 4.44334 0.995514 4.37541 -3.11456 1 -7.35412 0.0185705 4
390 1 11.6108 2.6807 6.24586 3.5057 -3.03714 -1.21034 1 -7.35181 0.0143028 4
391 1 8.8851 3.52015 5.36925 -3.35317 0.594532 -5.77706 1 -7.29516 0.0279916 4
392 1 12.506 3.54553 5.38535 -1.71393 -1.4373 -0.0392402 1 -7.30359 0.00311518 4
393 1 8.89181 1.82695 7.17988 -7.36543 -6.85325 -3.97833 1 -7.32977 0.072851 4
394 1 9.82003 2.66747 8.04783 -1.65094 -5.66305 -8.58149 1 -7.36982 0.0674945 4
395 1 12.4817 1.77525 7.146 1.79725 -3.76956 5.28836 1 -7.30222 0.0282621 4
396 1 11.5778 0.901776 8.05695 7.40413 7.7653 5.1214 1 -7.39438 0.0879798 4
397 1 10.7267 3.55194 7.19256 -6.17885 1.73877 -8.58908 1 -7.3657 0.0715628 4
398 1 13.3766 0.90373 6.22133 3.23667 1.78317 -2.30587 1 -7.34201 0.0118092 4
399 1 13.3867 2.61844 4.47629 -2.79819 3.34716 -1.92936 1 -7.30248 0.0141638 4
400 1 14.2933 1.7983 5.3647 7.41024 0.209855 5.26342 1 -7.37747 0.0514493 4
401 1 15.2048 0.916493 4.47322 -8.47467 -5.91638 -3.60446 1 -7.34937 0.0745764 4
402 1 15.2212 2.64279 6.28194 8.69888 -0.815679 -2.97525 1 -7.30311 0.0530231 4
403 1 16.9849 0.86386 6.27184 10.6193 -4.9938 -2.48902 1 -7.25567 0.0895693 4
404 1 16.956 2.68027 4.45179 -0.613442 -2.28769 -0.0224344 1 -7.38439 0.00349201 4
405 1 16.0838 3.55636 5.37747 3.57401 -0.853306 0.264526 1 -7.27307 0.00844736 4
406 1 13.3901 2.69918 8.05586 -0.132253 4.09514 -0.626827 1 -7.31542 0.0106936 4
407 1 16.0698 1.77781 7.17453 4.10736 4.6137 2.57393 1 -7.37514 0.0278734 4
408 1 15.1804 0.865253 8.08506 0.442664 -2.45717 3.27713 1 -7.29098 0.0105646 4
409 1 16.9459 2.68519 8.05575 -1.23731 -7.26267 -1.32032 1 -7.30858 0.0348686 4
410 1 14.2748 3.56049 7.22493 8.38947 -3.99948 -6.48065 1 -7.28002 0.0799058 4
412 1 17.8394 1.77469 5.36524 5.6597 -8.3311 7.24584 1 -7.33749 0.0958173 4
413 1 18.7812 0.911007 4.49289 -2.049 1.97464 0.301236 1 -7.30875 0.00509664 4
414 1 18.7474 2.63753 6.28331 -1.12687 2.82905 -7.13834 1 -7.33241 0.0374883 4
415 1 20.513 0.89301 6.29874 -3.38018 -5.43816 -2.49985 1 -7.32553 0.0294087 4
416 1 20.5288 2.69698 4.4479 -7.32287 -1.39643 2.0196 1 -7.29424 0.0371297 4
417 1 19.6523 3.57102 5.42769 0.474506 -2.66936 -1.62343 1 -7.26528 0.00621565 4
418 1 19.6069 1.8012 7.17126 -5.68847 5.89664 -1.21607 1 -7.37582 0.0427033 4
419 1 18.7472 0.91507 8.07804 10.309 0.198397 -0.712212 1 -7.32524 0.0664884 4
420 1 20.5026 2.68003 8.0239 -2.11267 -6.83665 2.54622 1 -7.39999 0.0359055 4
421 1 17.8733 3.57815 7.16255 -5.50638 -4.22266 -1.15356 1 -7.33195 0.0307988 4
423 1 0.895973 4.46445 4.51868 -4.97341 4.8234 -5.2448 1 -7.3922 0.0469981 4
424 1 0.900194 6.2484 6.29604 2.84068 -0.200765 1.4501 1 -7.38278 0.00635656 4
425 1 2.67051 4.43962 6.35781 -3.35033 1.11314 1.39476 1 -7.26956 0.00896862 4
426 1 2.68653 6.27737 4.4557 -5.14688 5.89035 1.6079 1 -7.32289 0.0396933 4
427 1 3.57471 5.34605 5.37357 0.298123 -3.88008 1.5962 1 -7.17391 0.0110118 4
428 1 1.8014 7.1509 5.42048 2.42547 -5.49201 -6.58347 1 -7.37931 0.0494126 4
429 1 0.875779 8.02274 4.52824 -1.122 0.215233 6.9077 1 -7.31812 0.0305123 4
430 1 2.64064 8.0387 6.30766 2.95832 3.76725 0.978333 1 -7.37472 0.0148766 4
431 1 1.74914 5.35156 7.16973 -2.66371 1.56373 -0.0296564 1 -7.38371 0.00593886 4
432 1 0.886071 4.50122 8.05986 8.95343 1.87675 -2.41536 1 -7.29811 0.0557196 4
433 1 2.65926 6.27912 8.04711 5.86043 -0.132072 1.89145 1 -7.27817 0.0236146 4