ITEM: TIMESTEP
49125575
ITEM: NUMBER OF ATOMS
3060
ITEM: BOX BOUNDS pp pp mm
0.0000000000000000e+00 2.1394294200000001e+01
0.0000000000000000e+00 2.1394294200000001e+01
-5.3491084073550004e-03 5.3485735499999997e+01
ITEM: ATOMS id type x y z vx vy vz c_clusts c_atom_pe c_atom_ke c_atom_coord
1 1 0 0 0 0 0 0 1 -3.33919 0 2
2 1 1.78286 1.78286 0 0 0 0 1 -3.34908 0 2
3 1 0.891429 0.891429 0.891429 0 0 0 1 -7.02068 0 4
4 1 0.926752 2.69859 2.68168 -2.12075 10.7768 -3.48441 1 -7.37942 0.0826442 4
5 1 2.73085 0.934054 2.71569 -1.68983 0.973655 -9.71961 1 -7.34491 0.0611685 4
6 1 2.67429 2.67429 0.891429 0 0 0 1 -6.9964 0 4
7 1 3.56572 0 0 0 0 0 1 -3.34836 0 2
8 1 3.59512 1.82333 1.82695 -3.24313 -2.62021 1.64972 1 -7.30991 0.0125139 4
9 1 0 3.56572 0 0 0 0 1 -3.33907 0 2
10 1 1.81284 3.60073 1.78201 -0.259012 -4.52695 4.52673 1 -7.34803 0.0255516 4
11 1 3.56572 3.56572 0 0 0 0 1 -3.32225 0 2
12 1 1.77508 1.78438 3.57231 4.91134 1.58954 -1.56765 1 -7.31579 0.018116 4
13 1 3.56286 3.54799 3.56736 4.84239 9.81003 0.236682 1 -7.25903 0.0745303 4
292 1 1.79587 0.00968006 1.77892 5.33631 -0.933388 -3.27153 1 -7.29585 0.0249284 4
56 1 -0.00340115 3.58731 3.58724 -4.7317 4.6887 -1.24631 1 -7.37582 0.0285856 4
55 1 0.0351618 1.79643 1.78159 0.567554 -0.333247 1.07613 1 -7.32208 0.000990427 4
291 1 3.57347 0.045411 3.59566 -5.2821 2.68482 -11.7976 1 -7.32131 0.108484 4
350 1 0.00843338 0.00746395 3.61399 1.11426 -2.18432 -10.4815 1 -7.36979 0.0721237 4
14 1 5.34857 1.78286 0 0 0 0 1 -3.33292 0 2
15 1 4.45714 0.891429 0.891429 0 0 0 1 -6.97201 0 4
16 1 4.49475 2.73735 2.67086 -0.388398 -8.30433 8.36748 1 -7.30975 0.0865966 4
17 1 6.28476 0.88001 2.62928 0.378126 -4.33731 6.03094 1 -7.26183 0.0344373 4
18 1 6.24 2.67429 0.891429 0 0 0 1 -7.03956 0 4
19 1 7.13143 0 0 0 0 0 1 -3.33804 0 2
20 1 7.15501 1.7666 1.74996 -4.38882 -1.50078 2.95033 1 -7.40127 0.0188088 4
21 1 8.02286 0.891429 0.891429 0 0 0 1 -7.00878 0 4
22 1 8.02406 2.62982 2.66068 -10.7999 -5.92196 2.48574 1 -7.37199 0.0982725 4
23 1 5.36549 3.59496 1.75467 -1.27168 -0.138825 4.65098 1 -7.38604 0.0144827 4
24 1 7.13143 3.56572 0 0 0 0 1 -3.30582 0 2
25 1 5.35358 1.78346 3.5803 4.3014 -6.18325 -3.83872 1 -7.25633 0.044485 4
26 1 7.11493 3.54522 3.55045 -0.208037 -0.115077 -5.74086 1 -7.37403 0.0205488 4
306 1 7.16646 0.0296344 3.56037 8.4559 5.72936 -9.08667 1 -7.30646 0.116329 4
28 1 8.91429 1.78286 0 0 0 0 1 -3.31685 0 2
29 1 9.81398 0.901733 2.67441 1.48393 -4.21806 -0.749451 1 -7.36446 0.0127945 4
30 1 9.80572 2.67429 0.891429 0 0 0 1 -6.96472 0 4
31 1 10.6971 0 0 0 0 0 1 -3.33984 0 2
32 1 10.7325 1.77625 1.77925 -1.85899 -5.76741 4.91712 1 -7.34892 0.0379038 4
33 1 12.48 1.78286 0 0 0 0 1 -3.34839 0 2
34 1 11.5886 0.891429 0.891429 0 0 0 1 -7.02867 0 4
35 1 11.5886 2.64513 2.68122 -5.64996 1.16734 -3.7769 1 -7.33776 0.0295962 4
36 1 8.8856 3.57998 1.76906 4.83193 -0.260908 1.56815 1 -7.29678 0.0161051 4
37 1 10.6971 3.56572 0 0 0 0 1 -3.32981 0 2
38 1 12.4895 3.56039 1.77609 -1.39587 -4.64007 -8.11635 1 -7.32966 0.0556162 4
39 1 8.94348 1.76284 3.52445 -0.0488751 1.11733 -2.19399 1 -7.41713 0.00377465 4
40 1 12.4708 1.77312 3.62522 -10.4711 8.77117 -1.46716 1 -7.32265 0.117471 4
41 1 10.6906 3.55094 3.56097 -6.36602 -3.86953 2.69453 1 -7.3375 0.0390634 4
319 1 10.7282 0.0251237 3.56982 3.94143 -3.93606 2.76465 1 -7.32423 0.0240696 4
42 1 13.3896 0.900536 2.67915 3.84465 -4.43765 -3.63951 1 -7.27879 0.0297022 4
43 1 13.3714 2.67429 0.891429 0 0 0 1 -7.02434 0 4
44 1 14.2629 0 0 0 0 0 1 -3.33679 0 2
45 1 14.2786 1.82941 1.7988 -6.23765 -2.42328 -3.6966 1 -7.36251 0.036378 4
46 1 16.0457 1.78286 0 0 0 0 1 -3.31075 0 2
47 1 15.1543 0.891429 0.891429 0 0 0 1 -6.99532 0 4
48 1 15.1649 2.70395 2.6612 2.6257 0.408005 4.35232 1 -7.35116 0.0161852 4
49 1 16.9477 0.905172 2.66924 -8.35841 0.876207 1.46849 1 -7.31516 0.0453046 4
50 1 16.9371 2.67429 0.891429 0 0 0 1 -7.00851 0 4
51 1 14.2629 3.56572 0 0 0 0 1 -3.33299 0 2
52 1 16.0342 3.56459 1.76982 -6.86268 5.46776 -1.92617 1 -7.3835 0.0502317 4
53 1 16.0998 1.82303 3.58084 -10.7258 3.54145 -1.97709 1 -7.35616 0.0818451 4
54 1 14.2431 3.54418 3.59157 3.9956 6.6758 -3.32806 1 -7.28691 0.0445702 4
336 1 14.3034 0.0314456 3.60167 0.383385 -6.51345 -1.74626 1 -7.27118 0.028396 4
57 1 17.8286 0 0 0 0 0 1 -3.3271 0 2
58 1 17.831 1.76389 1.77415 -3.48372 0.975096 -2.32901 1 -7.37697 0.011522 4
59 1 19.6114 1.78286 0 0 0 0 1 -3.32968 0 2
60 1 18.72 0.891429 0.891429 0 0 0 1 -7.05021 0 4
61 1 18.6595 2.6804 2.67108 -1.70918 7.44316 1.49875 1 -7.33936 0.0376992 4
62 1 20.5099 0.893359 2.68662 -1.30944 4.96432 -8.10387 1 -7.33506 0.057283 4
63 1 20.5029 2.67429 0.891429 0 0 0 1 -6.99505 0 4
64 1 17.8286 3.56572 0 0 0 0 1 -3.33557 0 2
65 1 19.5787 3.58028 1.77846 3.40799 -0.658097 1.79629 1 -7.2691 0.00950703 4
66 1 19.6414 1.82315 3.55467 0.0125701 5.08113 -1.04032 1 -7.3146 0.0167434 4
67 1 17.8063 3.58577 3.55486 8.27458 -1.52958 3.32581 1 -7.38259 0.0509576 4
68 1 19.6238 0.0193087 1.76133 -2.20862 2.27498 -2.1201 1 -7.37544 0.00905528 4
349 1 17.8574 0.0132212 3.58543 -1.58949 10.261 -6.07241 1 -7.2667 0.0900584 4
69 1 1.78286 5.34857 0 0 0 0 1 -3.32607 0 2
70 1 0.891429 4.45714 0.891429 0 0 0 1 -7.01899 0 4
71 1 0.892653 6.27489 2.67804 -8.64352 -11.7137 -11.8816 1 -7.36839 0.219774 4
72 1 2.66244 4.51303 2.65606 -2.80197 -12.2524 -0.629633 1 -7.31917 0.0985723 4
73 1 2.67429 6.24 0.891429 0 0 0 1 -6.99963 0 4
74 1 3.5654 5.36041 1.7854 -8.99488 -1.73848 4.91437 1 -7.32306 0.0672725 4
75 1 0 7.13143 0 0 0 0 1 -3.34489 0 2
76 1 1.78946 7.13548 1.81169 2.66462 3.11442 -1.88698 1 -7.33362 0.0126729 4
77 1 0.891429 8.02286 0.891429 0 0 0 1 -7.02104 0 4
78 1 2.65494 7.98855 2.69976 -3.94194 -2.72748 -0.241177 1 -7.35314 0.0143383 4
79 1 3.56572 7.13143 0 0 0 0 1 -3.33097 0 2
80 1 1.78506 5.39046 3.57897 0.70998 -10.6525 2.94192 1 -7.31963 0.0763305 4
81 1 3.57467 7.13218 3.55986 3.20065 -3.97429 -4.88609 1 -7.42166 0.0310672 4
128 1 0.0101756 5.36306 1.78269 -0.227222 -6.18092 -2.16254 1 -7.37522 0.026722 4
82 1 0.0295815 7.15106 3.57992 7.97061 -4.89856 -5.65854 1 -7.36478 0.0744083 4
83 1 5.34857 5.34857 0 0 0 0 1 -3.3169 0 2
84 1 4.45714 4.45714 0.891429 0 0 0 1 -7.05035 0 4
85 1 4.46417 6.287 2.70352 2.68338 -0.162706 -0.863733 1 -7.29987 0.00496262 4
86 1 6.24193 4.44162 2.70365 5.07807 3.59379 -3.63554 1 -7.38629 0.0323159 4
87 1 6.24 6.24 0.891429 0 0 0 1 -6.98985 0 4
88 1 7.10991 5.31905 1.80585 3.01967 3.46071 2.24199 1 -7.33625 0.0162587 4
89 1 8.02286 4.45714 0.891429 0 0 0 1 -7.02304 0 4
90 1 8.01563 6.24647 2.61085 -0.804451 5.70646 -6.04351 1 -7.2634 0.0434048 4
91 1 5.36468 7.13545 1.77641 -4.99328 -2.2943 -0.750284 1 -7.34252 0.0191456 4
92 1 4.45714 8.02286 0.891429 0 0 0 1 -7.01292 0 4
93 1 6.33623 8.02613 2.67794 -1.16039 -4.49301 9.72198 1 -7.26399 0.0722329 4
94 1 7.13143 7.13143 0 0 0 0 1 -3.35195 0 2
95 1 8.02286 8.02286 0.891429 0 0 0 1 -6.99847 0 4
96 1 5.34905 5.31715 3.61741 0.721177 0.258405 5.10679 1 -7.33544 0.0165977 4
97 1 7.1342 7.13231 3.5735 3.25124 4.253 -4.71303 1 -7.31476 0.0316636 4
98 1 8.91429 5.34857 0 0 0 0 1 -3.34523 0 2
99 1 9.83319 4.46351 2.66476 6.75517 -4.21487 -1.21449 1 -7.3169 0.0403783 4
100 1 9.80572 6.24 0.891429 0 0 0 1 -7.01121 0 4
101 1 10.7148 5.36856 1.78087 6.65331 -2.14493 3.95596 1 -7.37178 0.040157 4
102 1 12.48 5.34857 0 0 0 0 1 -3.32133 0 2
103 1 11.5886 4.45714 0.891429 0 0 0 1 -7.00056 0 4
104 1 11.5883 6.22239 2.66719 0.938493 1.29012 1.26626 1 -7.3148 0.00258219 4
105 1 8.87775 7.13173 1.76928 10.9563 3.33858 -7.04079 1 -7.38685 0.112509 4
106 1 9.76965 7.98357 2.67542 -3.16884 0.464311 1.65664 1 -7.35833 0.00809254 4
107 1 10.6971 7.13143 0 0 0 0 1 -3.32795 0 2
108 1 12.4756 7.16275 1.73803 1.54087 -1.19608 4.64576 1 -7.30411 0.0158021 4
109 1 11.5886 8.02286 0.891429 0 0 0 1 -7.0517 0 4
110 1 8.91595 5.34947 3.55531 -5.36878 1.22865 -10.0297 1 -7.28368 0.0814929 4
111 1 12.5268 5.31629 3.54476 -0.417657 -0.787772 2.43369 1 -7.3536 0.00418137 4
112 1 10.6913 7.07008 3.5464 -0.0361695 0.526476 -1.40383 1 -7.32785 0.00139997 4
113 1 13.3662 4.49666 2.6731 -2.988 -0.509363 -6.13384 1 -7.30443 0.0291368 4
114 1 13.3714 6.24 0.891429 0 0 0 1 -6.92588 0 4
115 1 14.3176 5.30956 1.80093 -0.530712 -1.31996 9.49571 1 -7.34637 0.057383 4
116 1 16.0457 5.34857 0 0 0 0 1 -3.35032 0 2
117 1 15.1543 4.45714 0.891429 0 0 0 1 -7.04368 0 4
118 1 15.1701 6.18899 2.68575 0.057728 3.28577 -7.19066 1 -7.29231 0.0389049 4
119 1 16.9235 4.44892 2.67461 1.1974 3.15673 -6.99346 1 -7.35166 0.0375368 4
120 1 16.9371 6.24 0.891429 0 0 0 1 -7.01472 0 4
121 1 13.3782 7.99436 2.62659 1.22846 -3.55124 7.18099 1 -7.35658 0.0408853 4
122 1 14.2629 7.13143 0 0 0 0 1 -3.31617 0 2
123 1 16.0771 7.14851 1.75193 2.7212 -4.50528 -4.58589 1 -7.2946 0.0303326 4
124 1 15.1543 8.02286 0.891429 0 0 0 1 -7.02481 0 4
125 1 16.9621 8.02397 2.65914 4.07969 8.14703 11.3688 1 -7.37002 0.132121 4
126 1 16.1098 5.32511 3.55138 4.51953 -5.07647 -0.849089 1 -7.28402 0.0292028 4
127 1 14.2985 7.0944 3.5423 -5.23068 3.95636 -3.10754 1 -7.35536 0.0327829 4
129 1 17.8236 5.36528 1.78751 0.602096 -3.10601 0.895981 1 -7.33301 0.00673005 4
130 1 19.6114 5.34857 0 0 0 0 1 -3.32688 0 2
131 1 18.72 4.45714 0.891429 0 0 0 1 -7.01449 0 4
132 1 18.7 6.24249 2.70337 -2.36008 2.02559 -2.07484 1 -7.37642 0.00870024 4
133 1 20.5177 4.48844 2.71476 2.46688 -0.380548 -2.82514 1 -7.35875 0.00884575 4
134 1 20.5029 6.24 0.891429 0 0 0 1 -6.99235 0 4
135 1 17.8286 7.13143 0 0 0 0 1 -3.30909 0 2
136 1 19.5607 7.11711 1.7808 -1.79438 -4.98645 5.44984 1 -7.29095 0.0359671 4
137 1 18.72 8.02286 0.891429 0 0 0 1 -7.00488 0 4
138 1 20.5309 8.00957 2.69292 1.55866 3.25677 -2.50723 1 -7.28153 0.0120266 4
139 1 19.6197 5.37828 3.56217 -3.139 -2.62424 -3.03107 1 -7.33043 0.0161379 4
140 1 17.8057 7.12859 3.54865 -0.715142 -2.80763 -1.32645 1 -7.32076 0.00631991 4
141 1 1.78286 8.91429 0 0 0 0 1 -3.33913 0 2
142 1 0.892357 9.80296 2.68698 0.209457 6.27698 -8.48441 1 -7.33335 0.0693567 4
143 1 2.67429 9.80572 0.891429 0 0 0 1 -7.05549 0 4
144 1 3.54667 8.92217 1.76241 3.34891 -4.36435 3.02049 1 -7.3365 0.024515 4
145 1 0 10.6971 0 0 0 0 1 -3.33247 0 2
146 1 1.81482 10.6903 1.75254 0.806641 -0.355319 4.6736 1 -7.3003 0.014079 4
147 1 1.78286 12.48 0 0 0 0 1 -3.31383 0 2
148 1 0.891429 11.5886 0.891429 0 0 0 1 -7.01232 0 4
149 1 2.7467 11.5884 2.68808 0.987218 -1.07008 -3.77535 1 -7.2832 0.0101909 4
150 1 3.56572 10.6971 0 0 0 0 1 -3.3297 0 2
151 1 3.56886 12.5002 1.79342 11.4658 -1.42506 -0.408546 1 -7.369 0.0831953 4
152 1 1.75181 8.88856 3.57006 -6.56224 -1.14458 -0.25311 1 -7.35355 0.0276588 4
153 1 1.77753 12.4817 3.52593 7.28236 0.0928449 1.7873 1 -7.32987 0.0350027 4
154 1 3.58982 10.6857 3.64057 0.833534 -1.6845 1.93046 1 -7.36341 0.00451819 4
205 1 0.021523 8.88733 1.77539 7.79864 -5.71945 -1.6322 1 -7.30677 0.0598743 4
204 1 0.0274687 12.5029 1.75508 12.8013 -1.76385 -1.01066 1 -7.38388 0.104571 4
155 1 5.34857 8.91429 0 0 0 0 1 -3.34019 0 2
156 1 4.46448 9.7774 2.69326 5.48508 3.57949 -4.42891 1 -7.3105 0.0389104 4
157 1 6.24 9.80572 0.891429 0 0 0 1 -7.00489 0 4
158 1 7.17918 8.94548 1.81259 5.31739 0.949695 -2.16954 1 -7.32383 0.0210899 4
159 1 8.06596 9.83676 2.68769 -6.24011 1.43444 1.9157 1 -7.34439 0.0278016 4
160 1 5.35346 10.6854 1.76762 -2.9968 7.58128 -4.04685 1 -7.33867 0.0515578 4
161 1 5.34857 12.48 0 0 0 0 1 -3.33876 0 2
162 1 4.45714 11.5886 0.891429 0 0 0 1 -7.00297 0 4
163 1 6.26402 11.5841 2.65397 -2.15862 -2.6335 3.23517 1 -7.30149 0.0137315 4
164 1 7.13143 10.6971 0 0 0 0 1 -3.33742 0 2
165 1 7.16793 12.5096 1.76882 -0.30363 -0.433602 -4.22983 1 -7.35857 0.0113105 4
166 1 8.02286 11.5886 0.891429 0 0 0 1 -7.03142 0 4
167 1 5.39406 8.9323 3.57056 -4.96258 2.59991 0.285054 1 -7.27545 0.0195865 4
168 1 5.36991 12.4698 3.56418 11.4899 2.70905 -2.9767 1 -7.30339 0.0922546 4
169 1 7.11641 10.701 3.60721 -2.4058 -6.26068 -9.33073 1 -7.30792 0.0821893 4
170 1 8.91429 8.91429 0 0 0 0 1 -3.31537 0 2
171 1 9.80572 9.80572 0.891429 0 0 0 1 -6.92963 0 4
172 1 10.6993 8.86242 1.80133 -0.279518 1.58859 -3.27255 1 -7.3236 0.00828533 4
173 1 12.48 8.91429 0 0 0 0 1 -3.3243 0 2
174 1 11.5453 9.77767 2.6469 0.145504 -0.433787 -4.2077 1 -7.35716 0.0111502 4
175 1 8.86916 10.7388 1.78173 -4.07851 -1.94089 0.444696 1 -7.32378 0.0128214 4
176 1 8.91429 12.48 0 0 0 0 1 -3.34107 0 2
177 1 9.75873 11.6051 2.71777 -3.2171 -0.689608 -7.35223 1 -7.2986 0.0403834 4
178 1 10.6971 10.6971 0 0 0 0 1 -3.32858 0 2
179 1 10.6772 12.5034 1.76883 -1.78489 -4.40705 4.12782 1 -7.31083 0.0246772 4
180 1 12.4459 10.6917 1.78802 2.17481 -0.729217 1.51034 1 -7.38473 0.00469476 4
181 1 12.48 12.48 0 0 0 0 1 -3.34419 0 2
182 1 11.5886 11.5886 0.891429 0 0 0 1 -7.02751 0 4
183 1 8.92448 8.9219 3.56499 -1.58187 3.9953 -11.0523 1 -7.4026 0.0875243 4
184 1 12.4416 8.87742 3.50474 2.88811 -9.09301 -3.77948 1 -7.32414 0.0655467 4
185 1 8.8877 12.4806 3.62432 5.85839 -1.96276 -0.771371 1 -7.373 0.0241303 4
186 1 10.6691 10.6932 3.59381 -2.32393 10.0592 -1.34889 1 -7.33962 0.0674757 4
187 1 12.5039 12.4101 3.5715 1.83819 -1.66356 0.925532 1 -7.20888 0.00435885 4
188 1 13.3714 9.80572 0.891429 0 0 0 1 -6.97043 0 4
189 1 14.2633 8.88573 1.78462 1.85775 -3.11981 1.83474 1 -7.34551 0.0103016 4
190 1 16.0457 8.91429 0 0 0 0 1 -3.341 0 2
191 1 15.1912 9.81566 2.68243 1.5255 -10.0745 7.04692 1 -7.2498 0.0955316 4
192 1 16.9371 9.80572 0.891429 0 0 0 1 -6.99817 0 4
193 1 13.3841 11.5468 2.67367 3.7034 5.75716 4.75994 1 -7.36987 0.0432693 4
194 1 14.2629 10.6971 0 0 0 0 1 -3.3646 0 2
195 1 14.2656 12.4829 1.81671 6.70238 0.30514 5.26357 1 -7.37036 0.045263 4
196 1 16.0869 10.7554 1.77152 -5.5796 0.720846 -2.89725 1 -7.32282 0.0249254 4
197 1 16.0457 12.48 0 0 0 0 1 -3.32545 0 2
198 1 15.1543 11.5886 0.891429 0 0 0 1 -6.9731 0 4
199 1 16.9436 11.6391 2.66148 -2.03747 3.54139 -0.811924 1 -7.329 0.0108003 4
200 1 16.0753 8.94105 3.59889 1.59524 -3.5994 -1.82548 1 -7.3044 0.011722 4
201 1 14.2614 10.683 3.60193 -7.47471 1.54173 -4.29159 1 -7.34398 0.0477189 4
202 1 16.0149 12.5145 3.55159 1.49281 -0.986698 7.08593 1 -7.33194 0.0332453 4
203 1 21.3842 10.6942 3.53142 4.5724 7.97805 -1.28303 1 -7.41153 0.0536545 4
206 1 17.8118 8.91678 1.79275 0.149313 -1.64519 7.54652 1 -7.33557 0.0371458 4
207 1 19.6114 8.91429 0 0 0 0 1 -3.34388 0 2
208 1 18.7574 9.8494 2.62024 -0.747829 1.11426 2.88652 1 -7.32304 0.00630693 4
209 1 20.5029 9.80572 0.891429 0 0 0 1 -6.97611 0 4
210 1 17.8286 10.6971 0 0 0 0 1 -3.32491 0 2
211 1 17.8428 12.4858 1.79219 -6.38769 -4.7153 8.80705 1 -7.3238 0.0875135 4
212 1 19.5988 10.7162 1.7788 6.34632 3.06696 3.44702 1 -7.38387 0.038319 4
213 1 19.6114 12.48 0 0 0 0 1 -3.34329 0 2
214 1 18.72 11.5886 0.891429 0 0 0 1 -7.03519 0 4
215 1 20.5292 11.5854 2.62034 6.30603 4.57257 5.82381 1 -7.36827 0.058876 4
216 1 19.6171 8.95764 3.53865 -7.4533 2.62732 3.79959 1 -7.32357 0.0478592 4
217 1 17.8286 10.7243 3.55725 9.48867 -4.71642 3.6925 1 -7.31386 0.0783722 4
218 1 19.6496 12.4981 3.51733 -2.20845 0.884623 -1.07164 1 -7.30479 0.00423762 4
219 1 0.900969 13.3705 2.6568 4.71343 0.851407 0.068316 1 -7.37986 0.0142822 4
220 1 2.67429 13.3714 0.891429 0 0 0 1 -7.04765 0 4
221 1 0 14.2629 0 0 0 0 1 -3.29743 0 2
222 1 1.78312 14.256 1.76239 4.47322 -4.05146 -1.2974 1 -7.3764 0.0237189 4
223 1 1.78286 16.0457 0 0 0 0 1 -3.33208 0 2
224 1 0.891429 15.1543 0.891429 0 0 0 1 -7.02534 0 4
225 1 0.883973 16.962 2.6514 0.933626 1.40715 -3.19442 1 -7.35769 0.00812642 4
226 1 2.65891 15.19 2.63636 -0.704728 8.12573 -4.20936 1 -7.31689 0.0524349 4
227 1 2.67429 16.9371 0.891429 0 0 0 1 -6.97892 0 4
228 1 3.56572 14.2629 0 0 0 0 1 -3.34174 0 2
229 1 3.5888 16.0544 1.81476 -3.06514 0.782076 2.25453 1 -7.32242 0.0093922 4
230 1 1.76731 16.0959 3.55148 -2.26091 0.221533 -1.04439 1 -7.33516 0.00389114 4
231 1 3.55706 14.3227 3.56012 6.65414 -3.57862 -0.0588974 1 -7.30111 0.0355328 4
233 1 0.00165081 16.0259 1.74474 5.61077 3.34795 0.886365 1 -7.34188 0.0270601 4
232 1 0.0194366 14.2998 3.56631 0.707697 -2.2632 5.88882 1 -7.25942 0.0250844 4
234 1 4.4657 13.3862 2.67217 -4.069 -9.90994 -4.5226 1 -7.34534 0.084163 4
235 1 6.24 13.3714 0.891429 0 0 0 1 -7.01384 0 4
236 1 8.0673 13.3765 2.67453 4.28533 1.94834 -1.44969 1 -7.34005 0.0151011 4
237 1 5.34606 14.2579 1.79745 -9.55357 2.47998 1.94072 1 -7.3477 0.0629817 4
238 1 5.34857 16.0457 0 0 0 0 1 -3.34208 0 2
239 1 4.45714 15.1543 0.891429 0 0 0 1 -7.00201 0 4
240 1 4.43958 16.94 2.70038 -4.99371 8.33316 7.6524 1 -7.35631 0.0951926 4
241 1 6.25472 15.1719 2.63948 2.49877 -2.712 -2.03506 1 -7.29781 0.011042 4
242 1 6.24 16.9371 0.891429 0 0 0 1 -6.95758 0 4
243 1 7.13143 14.2629 0 0 0 0 1 -3.34578 0 2
244 1 7.16505 16.0617 1.78069 -3.33229 1.47376 -4.0419 1 -7.41389 0.018432 4
245 1 8.02286 15.1543 0.891429 0 0 0 1 -7.01446 0 4
246 1 8.00584 16.9517 2.66513 -3.96045 -3.5586 6.71576 1 -7.31367 0.0457173 4
247 1 5.3065 16.037 3.58633 -3.9927 -5.75787 2.17297 1 -7.29417 0.0334968 4
248 1 7.15104 14.2835 3.57511 -4.24641 5.38264 -8.44737 1 -7.31256 0.0736722 4
249 1 9.80572 13.3714 0.891429 0 0 0 1 -6.98752 0 4
250 1 11.5842 13.4033 2.64421 4.20335 0.0126725 -3.00376 1 -7.25873 0.0166131 4
251 1 8.94658 14.297 1.80644 6.92726 -5.73064 1.04074 1 -7.36356 0.0509831 4
252 1 8.91429 16.0457 0 0 0 0 1 -3.31801 0 2
253 1 9.84354 15.1829 2.66261 6.41008 1.87807 -2.278 1 -7.34676 0.0310002 4
254 1 9.80572 16.9371 0.891429 0 0 0 1 -7.04198 0 4
255 1 10.6971 14.2629 0 0 0 0 1 -3.33214 0 2
256 1 10.6919 16.06 1.78142 -9.40072 -0.691429 -2.14305 1 -7.37099 0.0581622 4
257 1 12.4695 14.3012 1.77241 -0.125521 1.38086 5.47583 1 -7.36988 0.0198599 4
258 1 12.48 16.0457 0 0 0 0 1 -3.32208 0 2
259 1 11.5886 15.1543 0.891429 0 0 0 1 -7.0161 0 4
260 1 11.5994 16.9389 2.66222 15.4462 3.69354 3.49878 1 -7.30988 0.164612 4
261 1 8.9582 16.0796 3.62001 9.88683 7.37181 5.50773 1 -7.20833 0.113548 4
262 1 10.7331 14.2692 3.57012 8.74809 8.5831 -10.6382 1 -7.33509 0.163928 4
263 1 12.5099 16.0061 3.58189 -8.63476 1.44103 4.57346 1 -7.35658 0.060719 4
264 1 13.3714 13.3714 0.891429 0 0 0 1 -6.99327 0 4
265 1 15.1693 13.351 2.62962 -0.463395 1.54619 -2.0342 1 -7.30317 0.00419725 4
266 1 16.9371 13.3714 0.891429 0 0 0 1 -6.98461 0 4
267 1 13.3472 15.1466 2.67058 1.138 8.93258 5.39553 1 -7.34721 0.06859 4
268 1 13.3714 16.9371 0.891429 0 0 0 1 -7.01397 0 4
269 1 14.2629 14.2629 0 0 0 0 1 -3.32488 0 2
270 1 14.2694 16.0294 1.744 -6.58993 -0.471916 4.91282 1 -7.34738 0.0421916 4
271 1 16.0695 14.2723 1.75848 1.42835 -0.320557 -2.38101 1 -7.40026 0.00486248 4
272 1 16.0457 16.0457 0 0 0 0 1 -3.32946 0 2
273 1 15.1543 15.1543 0.891429 0 0 0 1 -7.04165 0 4
274 1 15.1694 16.9468 2.64443 5.02279 0.0427326 -13.1082 1 -7.24115 0.122652 4
275 1 16.9492 15.1188 2.64675 9.17728 -4.10116 -4.86016 1 -7.37257 0.0775936 4
276 1 16.9371 16.9371 0.891429 0 0 0 1 -7.05656 0 4
277 1 14.2538 14.2572 3.57591 -5.66245 1.51795 5.65417 1 -7.31408 0.04129 4
278 1 16.0639 16.0222 3.56758 0.471114 3.49504 -0.445087 1 -7.30871 0.0078646 4
279 1 18.7502 13.4193 2.67914 -1.92241 -5.81863 2.9385 1 -7.33674 0.0287479 4
280 1 20.5029 13.3714 0.891429 0 0 0 1 -6.99654 0 4
281 1 17.8286 14.2629 0 0 0 0 1 -3.3269 0 2
282 1 17.7939 16.059 1.77846 6.4824 6.64754 3.22445 1 -7.35234 0.0601316 4
283 1 19.6108 14.3135 1.77966 -6.98957 -6.11985 -0.451713 1 -7.37384 0.0538466 4
284 1 19.6114 16.0457 0 0 0 0 1 -3.31211 0 2
285 1 18.72 15.1543 0.891429 0 0 0 1 -6.99304 0 4
286 1 18.7078 16.9107 2.6536 -1.02036 -7.50441 6.43587 1 -7.33981 0.0614819 4
287 1 20.4965 15.152 2.63947 -10.8648 -3.32998 3.93442 1 -7.33502 0.0900109 4
288 1 20.5029 16.9371 0.891429 0 0 0 1 -7.00712 0 4
289 1 17.8348 14.26 3.54111 4.52069 0.461197 2.21525 1 -7.35532 0.0159071 4
290 1 19.5993 16.0731 3.54365 6.6031 -11.7886 -0.204733 1 -7.33551 0.113664 4
293 1 0 17.8286 0 0 0 0 1 -3.34428 0 2
294 1 1.75191 17.8243 1.77787 -1.0328 5.16645 -4.70753 1 -7.37353 0.0310713 4
295 1 1.78286 19.6114 0 0 0 0 1 -3.34379 0 2
296 1 0.891429 18.72 0.891429 0 0 0 1 -7.00919 0 4
297 1 0.883519 20.5526 2.71896 2.43556 -1.52561 -4.16735 1 -7.33332 0.0159504 4
298 1 2.61811 18.7126 2.64774 -3.11923 -0.629614 1.70976 1 -7.39572 0.00812221 4
299 1 2.67429 20.5029 0.891429 0 0 0 1 -7.0456 0 4
300 1 3.56572 17.8286 0 0 0 0 1 -3.32871 0 2
301 1 3.51312 19.6198 1.76958 0.232294 7.76294 9.44302 1 -7.32883 0.0930451 4
302 1 1.78765 19.617 3.54731 -5.8132 3.24937 6.29201 1 -7.25594 0.0522471 4
303 1 3.53559 17.8538 3.55992 5.89294 -3.08386 -0.0194757 1 -7.32921 0.0275344 4
305 1 0.0201235 19.599 1.8188 9.55313 -1.49722 6.53342 1 -7.31355 0.0847679 4
27 1 5.33542 21.3665 1.79676 6.73614 6.69574 -1.84024 1 -7.3177 0.058256 4
307 1 5.3197 17.8691 1.788 3.16986 2.39695 6.52192 1 -7.32895 0.0363053 4
308 1 5.34857 19.6114 0 0 0 0 1 -3.34138 0 2
309 1 4.45714 18.72 0.891429 0 0 0 1 -7.01158 0 4
310 1 4.43669 20.4875 2.69755 1.79147 -6.62305 2.24107 1 -7.34198 0.0324262 4
311 1 6.2545 18.7495 2.67582 -1.85244 -9.49751 -3.62378 1 -7.34559 0.066454 4
312 1 6.24 20.5029 0.891429 0 0 0 1 -6.99519 0 4
313 1 7.13143 17.8286 0 0 0 0 1 -3.32175 0 2
314 1 7.14024 19.6292 1.79617 3.08745 -3.58028 -0.123007 1 -7.39101 0.0139211 4
315 1 8.02286 18.72 0.891429 0 0 0 1 -6.99195 0 4
316 1 8.05373 20.487 2.62318 -2.10651 -3.38946 -0.198645 1 -7.29383 0.00993723 4
317 1 5.31303 19.6224 3.57799 6.73563 -7.06385 -3.11593 1 -7.31441 0.0653397 4
318 1 7.1389 17.8601 3.57223 1.72341 3.3615 -3.95224 1 -7.40299 0.0186043 4
320 1 8.94618 21.3811 1.75355 -6.00118 -6.89386 5.82737 1 -7.35654 0.0731336 4
321 1 12.485 21.3818 1.8007 -2.82944 5.14848 0.862342 1 -7.36877 0.0219444 4
322 1 8.91303 17.8206 1.78173 -9.21787 -2.19103 -3.9482 1 -7.34833 0.0655776 4
323 1 8.91429 19.6114 0 0 0 0 1 -3.33022 0 2
324 1 9.79579 18.7021 2.68949 2.58871 -0.424827 4.00777 1 -7.3268 0.014281 4
325 1 9.80572 20.5029 0.891429 0 0 0 1 -7.05967 0 4
326 1 10.6971 17.8286 0 0 0 0 1 -3.32595 0 2
327 1 10.6672 19.622 1.75762 -1.35799 -0.101198 -3.15566 1 -7.30191 0.00735245 4
328 1 12.496 17.8215 1.77561 -2.54215 4.19784 -6.13694 1 -7.42939 0.0384325 4
329 1 12.48 19.6114 0 0 0 0 1 -3.3341 0 2
330 1 11.5886 18.72 0.891429 0 0 0 1 -6.98507 0 4
331 1 11.6438 20.4835 2.66837 -7.40993 -2.81587 2.4995 1 -7.294 0.0429995 4
332 1 8.95424 19.618 3.55504 3.88557 -9.12013 -3.69265 1 -7.31498 0.0696557 4
333 1 10.714 17.8211 3.5752 -1.33161 -4.55021 3.54117 1 -7.40179 0.0217958 4
334 1 12.4915 19.5976 3.58482 4.84871 4.3497 4.69093 1 -7.39465 0.0401059 4
335 1 16.0508 21.3831 1.76161 0.0290455 0.103287 2.72137 1 -7.38634 0.00461675 4
337 1 13.3756 18.6835 2.64975 2.29542 -5.77623 1.98784 1 -7.29122 0.0265062 4
338 1 13.3714 20.5029 0.891429 0 0 0 1 -7.01828 0 4
339 1 14.2629 17.8286 0 0 0 0 1 -3.33593 0 2
340 1 14.2768 19.6286 1.76578 -3.73433 -2.25892 -3.88411 1 -7.34263 0.021246 4
341 1 16.0888 17.8329 1.76297 -4.58991 -1.99561 0.829426 1 -7.35727 0.0160198 4
342 1 16.0457 19.6114 0 0 0 0 1 -3.30905 0 2
343 1 15.1543 18.72 0.891429 0 0 0 1 -6.97894 0 4
344 1 15.1947 20.495 2.664 -1.52229 2.49606 -3.97795 1 -7.3244 0.0151696 4
345 1 16.9308 18.7159 2.66312 7.97354 -5.93587 1.04778 1 -7.3323 0.0621864 4
346 1 16.9371 20.5029 0.891429 0 0 0 1 -7.01557 0 4
347 1 14.2775 17.8507 3.58199 -3.51476 -5.62241 2.83468 1 -7.35653 0.0323665 4
348 1 16.0286 19.5922 3.58292 -2.81296 -1.30028 -2.4568 1 -7.31721 0.00973435 4
304 1 21.3902 17.82 3.58217 9.04502 5.3892 4.07214 1 -7.30119 0.0793208 4
351 1 17.8286 17.8286 0 0 0 0 1 -3.31969 0 2
352 1 17.844 19.6141 1.75508 -0.544809 -0.54297 2.6549 1 -7.40727 0.00475541 4
353 1 19.6105 17.7805 1.77954 -1.40185 5.43227 2.60775 1 -7.38674 0.0238234 4
354 1 19.6114 19.6114 0 0 0 0 1 -3.33993 0 2
355 1 18.72 18.72 0.891429 0 0 0 1 -7.0018 0 4
356 1 18.7205 20.5147 2.61787 5.01088 -3.23046 -0.0455676 1 -7.25895 0.0221253 4
357 1 20.5164 18.6992 2.6649 -1.01074 -4.58714 3.78895 1 -7.30051 0.0226685 4
358 1 20.5029 20.5029 0.891429 0 0 0 1 -6.97478 0 4
359 1 17.8133 17.8292 3.606 2.36329 2.09296 -1.31659 1 -7.28026 0.00728176 4
360 1 19.6521 19.6167 3.60324 1.07917 -3.4091 2.03343 1 -7.27861 0.0105323 4
361 1 0.891562 0.898968 4.53861 1.63643 2.43244 -5.84341 1 -7.33874 0.0266025 4
362 1 0.885402 2.71801 6.2972 -4.00403 5.60373 1.00194 1 -7.29281 0.030149 4
363 1 2.71786 0.877452 6.30946 1.36517 -2.58272 0.613147 1 -7.39146 0.00554588 4
364 1 2.69056 2.61759 4.47819 9.05422 -2.32786 3.5679 1 -7.28605 0.0623221 4
365 1 3.59576 1.76892 5.42047 0.181167 6.23212 0.327496 1 -7.2949 0.0242618 4
366 1 1.82852 3.59023 5.40486 -4.97036 6.98194 -7.09818 1 -7.30077 0.0770788 4
367 1 1.84539 1.79737 7.19973 0.233664 2.72112 -2.78676 1 -7.33373 0.00947651 4
368 1 0.92751 0.926241 8.04366 7.14495 1.63554 2.1083 1 -7.33249 0.0362067 4
369 1 2.71323 2.65406 8.11506 -4.73726 -6.33639 0.968615 1 -7.32714 0.0395426 4
370 1 3.6004 3.59308 7.22054 -2.43234 -5.20028 6.06489 1 -7.25366 0.0434093 4
411 1 0.00812975 1.78808 5.40792 2.2142 -1.73021 -0.94588 1 -7.38524 0.00547176 4
371 1 0.0247634 3.60271 7.16658 -10.91 -5.25603 5.5473 1 -7.38414 0.110435 4
651 1 3.5857 0.0118008 7.14954 -6.99443 -3.85051 3.73869 1 -7.3263 0.0483789 4
710 1 0.0383606 0.0283427 7.22383 -2.94644 0.517429 1.37224 1 -7.30103 0.0067423 4
652 1 1.83213 0.0101182 5.43287 1.46335 0.532241 -0.0970719 1 -7.3443 0.00151505 4
372 1 4.51583 0.858182 4.46561 -2.86448 -7.37678 8.11311 1 -7.30358 0.0799474 4
373 1 4.52334 2.65604 6.26528 -0.539896 -0.0911128 10.4844 1 -7.30863 0.0686054 4
374 1 6.2482 0.865281 6.25378 -5.31389 -2.33469 -4.90545 1 -7.33181 0.0359461 4
375 1 6.26454 2.6713 4.44751 -0.110217 0.886059 0.973048 1 -7.35569 0.00108556 4
376 1 7.15594 1.78001 5.34437 9.57053 2.08803 7.08372 1 -7.33415 0.0909577 4
377 1 8.07403 0.900178 4.47112 -4.83761 -2.68389 9.38562 1 -7.30851 0.0738792 4
378 1 8.05425 2.67509 6.25561 -4.52967 3.21037 -4.25371 1 -7.32404 0.0304481 4
379 1 5.34208 3.5429 5.33683 1.07713 -5.51416 1.07648 1 -7.36028 0.0203689 4
380 1 5.39527 1.76257 7.15567 1.44733 -1.35407 -1.2849 1 -7.33349 0.00347267 4
381 1 4.49305 0.887975 8.09078 4.71244 -2.88117 5.1232 1 -7.36417 0.035326 4
382 1 6.18875 2.67772 8.0619 1.46617 -8.57837 2.93299 1 -7.29424 0.0524958 4
383 1 8.00607 0.920705 8.05626 -6.85287 -0.139943 -2.61741 1 -7.34344 0.0335066 4
384 1 7.11595 3.59676 7.11492 2.00575 -0.354204 2.68115 1 -7.2764 0.0070565 4
665 1 7.17094 -0.00271015 7.16935 -8.04431 -3.0395 2.88598 1 -7.34014 0.0512122 4
386 1 9.79784 0.888384 6.26229 -2.14798 -3.03784 -4.77865 1 -7.33095 0.0228292 4
387 1 9.80051 2.64203 4.42848 0.231883 -2.67008 -2.93308 1 -7.31839 0.00982568 4
388 1 10.6987 1.76145 5.36794 6.70831 2.8013 -5.87059 1 -7.3427 0.0543456 4
389 1 11.5989 0.855405 4.47597 3.59322 2.32817 -9.06608 1 -7.35606 0.0625697 4
390 1 11.5893 2.68713 6.25989 4.07433 0.652483 -3.62171 1 -7.34932 0.0187616 4
391 1 8.91855 3.53433 5.37899 -8.95127 -5.85028 2.22999 1 -7.30059 0.0742703 4
392 1 12.5188 3.55751 5.37925 -2.00209 -3.0266 2.19776 1 -7.32281 0.0112029 4
393 1 8.93257 1.83829 7.18535 -7.71542 2.52453 1.13037 1 -7.34748 0.0418138 4
394 1 9.82606 2.69794 8.0954 -1.03541 -5.3726 -8.18871 1 -7.41197 0.0603703 4
395 1 12.4762 1.79456 7.12483 0.546374 -2.25693 2.01856 1 -7.31343 0.00589242 4
396 1 11.5543 0.86502 8.02682 1.59438 4.98702 5.45978 1 -7.33836 0.0356162 4
397 1 10.742 3.54394 7.21169 0.749549 0.836087 1.72356 1 -7.33427 0.0026338 4
398 1 13.3654 0.883477 6.24601 1.15021 5.73253 -5.86522 1 -7.36764 0.0426895 4
399 1 13.3927 2.63809 4.48265 1.1364 -9.51424 -0.617147 1 -7.42027 0.0573834 4
400 1 14.2634 1.78107 5.34696 3.64884 5.52542 0.458729 1 -7.33771 0.0274208 4
401 1 15.2288 0.933802 4.49021 -0.803479 -0.34359 -2.75778 1 -7.35756 0.00520908 4
402 1 15.157 2.66165 6.29498 14.7419 -5.63851 -1.69759 1 -7.24265 0.15685 4
403 1 16.9339 0.88914 6.28887 7.48144 -4.47104 -3.50505 1 -7.2435 0.0549275 4
404 1 16.959 2.69597 4.4606 -0.210272 -4.04662 -3.14722 1 -7.39936 0.0163849 4
405 1 16.0621 3.56149 5.3779 4.77007 -0.76336 -1.03898 1 -7.32274 0.015197 4
406 1 13.3798 2.66495 8.068 3.91205 7.76283 -3.39238 1 -7.3512 0.0541971 4
407 1 16.0563 1.75278 7.16825 1.76582 3.09152 -0.396937 1 -7.36134 0.00798771 4
408 1 15.1684 0.878546 8.05779 3.98142 -2.28099 6.52637 1 -7.32905 0.0396163 4
409 1 16.9581 2.72398 8.06655 -3.1042 -5.85423 -2.94736 1 -7.25198 0.0327365 4
410 1 14.2587 3.57808 7.22863 -1.62707 -2.44539 5.09982 1 -7.28227 0.021558 4
412 1 17.8246 1.81371 5.33906 -0.126222 -5.8434 1.63267 1 -7.29969 0.022922 4
413 1 18.7686 0.905495 4.48072 5.84273 0.281236 3.54405 1 -7.2751 0.0291152 4
414 1 18.7463 2.64682 6.30674 1.01794 -5.99847 -1.31671 1 -7.29182 0.02412 4
415 1 20.5285 0.920814 6.31028 -2.78493 -3.62077 -1.88707 1 -7.38287 0.0152039 4
416 1 20.5551 2.70247 4.45614 -1.48544 -0.119273 -5.15875 1 -7.31748 0.0179467 4
417 1 19.6403 3.5809 5.41196 3.46819 -1.33765 6.97675 1 -7.24724 0.0388971 4
418 1 19.6384 1.76665 7.18019 -5.03356 5.43326 -2.36337 1 -7.36111 0.037621 4
419 1 18.7066 0.909061 8.08402 4.09148 2.17414 -1.56005 1 -7.35478 0.0148765 4
420 1 20.5161 2.71114 8.03444 -3.16684 -4.65984 -5.61802 1 -7.39751 0.0394027 4
421 1 17.8903 3.58631 7.17491 -0.36826 1.04647 -3.74132 1 -7.35139 0.00947842 4
423 1 0.920775 4.45525 4.52917 -4.2929 -1.77405 1.52763 1 -7.29961 0.0148821 4
424 1 0.889794 6.25376 6.28819 0.925208 -2.10706 0.543941 1 -7.34347 0.00348035 4
425 1 2.69299 4.44765 6.32208 -5.35617 -4.66092 11.2109 1 -7.38357 0.109607 4
426 1 2.70483 6.23728 4.46329 -1.33258 7.42704 -4.55849 1 -7.28143 0.0483728 4
427 1 3.57842 5.36495 5.37352 -1.46357 -2.88479 -1.24644 1 -7.33847 0.00748011 4
428 1 1.78184 7.16682 5.43046 4.37656 0.187032 3.41207 1 -7.31783 0.0191903 4
429 1 0.891012 8.02291 4.47889 -4.25397 -0.862429 10.3632 1 -7.34399 0.078572 4
430 1 2.65242 8.02626 6.29397 -6.55163 -0.791447 3.52222 1 -7.29836 0.0348287 4
431 1 1.77517 5.35506 7.18 -6.02081 -2.56568 -3.25207 1 -7.33647 0.033243 4
432 1 0.842823 4.47605 8.07753 5.56745 6.59228 -3.72319 1 -7.30699 0.0549707 4
433 1 2.63063 6.2821 8.046 3.00239 -0.692337 -1.1667 1 -7.3076 0.00675634 4
434 1 0.882008 8.07633 8.04295 0.423699 1.89282 5.70498 1 -7.33852 0.0225997 4