ITEM: TIMESTEP
49126500
ITEM: NUMBER OF ATOMS
3060
ITEM: BOX BOUNDS pp pp mm
0.0000000000000000e+00 2.1394294200000001e+01
0.0000000000000000e+00 2.1394294200000001e+01
-5.3491084073550004e-03 5.3485735499999997e+01
ITEM: ATOMS id type x y z vx vy vz c_clusts c_atom_pe c_atom_ke c_atom_coord
1 1 0 0 0 0 0 0 1 -3.34238 0 2
2 1 1.78286 1.78286 0 0 0 0 1 -3.33099 0 2
3 1 0.891429 0.891429 0.891429 0 0 0 1 -7.02169 0 4
4 1 0.907334 2.65524 2.68593 2.08701 -1.74153 -4.41474 1 -7.34346 0.0167298 4
5 1 2.66007 0.893829 2.70231 0.589774 -0.438859 -5.63436 1 -7.32391 0.020096 4
6 1 2.67429 2.67429 0.891429 0 0 0 1 -7.03582 0 4
7 1 3.56572 0 0 0 0 0 1 -3.33007 0 2
8 1 3.56798 1.80343 1.79134 -4.51536 5.03101 -4.49729 1 -7.33153 0.0410335 4
9 1 0 3.56572 0 0 0 0 1 -3.31868 0 2
10 1 1.81794 3.56145 1.74694 3.22103 1.2 -0.527554 1 -7.27171 0.0075272 4
11 1 3.56572 3.56572 0 0 0 0 1 -3.30856 0 2
12 1 1.73375 1.78891 3.55549 3.39405 -5.26948 -0.519655 1 -7.36922 0.0246213 4
13 1 3.6121 3.51181 3.56887 -1.19455 -1.61605 -1.94531 1 -7.33156 0.00486911 4
292 1 1.79587 0.00968006 1.77892 5.33631 -0.933388 -3.27153 1 -7.31018 0.0249284 4
56 1 -0.0183092 3.58729 3.53999 1.64129 1.86706 -0.254604 1 -7.36523 0.00388679 4
55 1 0.0309579 1.79106 1.76364 -2.4894 1.48776 -0.641941 1 -7.30145 0.00549143 4
291 1 3.53584 -0.037193 3.55707 -4.50857 2.91602 -3.33707 1 -7.32197 0.0248761 4
14 1 5.34857 1.78286 0 0 0 0 1 -3.31381 0 2
15 1 4.45714 0.891429 0.891429 0 0 0 1 -6.98096 0 4
16 1 4.49021 2.66545 2.64848 0.254826 3.42044 4.01656 1 -7.36094 0.0173639 4
17 1 6.27874 0.85841 2.61675 5.44717 -3.79692 -6.00393 1 -7.2398 0.0498785 4
18 1 6.24 2.67429 0.891429 0 0 0 1 -7.01533 0 4
19 1 7.13143 0 0 0 0 0 1 -3.35105 0 2
20 1 7.15501 1.7666 1.74996 -4.38882 -1.50078 2.95033 1 -7.35929 0.0188088 4
21 1 8.02286 0.891429 0.891429 0 0 0 1 -7.01192 0 4
22 1 8.03637 2.68235 2.66239 1.3545 -6.03795 3.03487 1 -7.33273 0.0295664 4
23 1 5.32942 3.5048 1.75173 2.66316 5.89502 8.01071 1 -7.39082 0.0659866 4
24 1 7.13143 3.56572 0 0 0 0 1 -3.32485 0 2
25 1 5.33195 1.74717 3.56839 6.09542 2.09374 2.43795 1 -7.28688 0.0295537 4
26 1 7.08927 3.53504 3.51621 -0.25679 4.15463 -1.99749 1 -7.35684 0.0132682 4
306 1 7.14603 -0.0201909 3.5643 -4.9176 -0.916804 0.112961 1 -7.31436 0.0155831 4
28 1 8.91429 1.78286 0 0 0 0 1 -3.333 0 2
29 1 9.84114 0.861401 2.68351 3.77896 1.70866 3.40768 1 -7.31091 0.0179335 4
30 1 9.80572 2.67429 0.891429 0 0 0 1 -7.01969 0 4
31 1 10.6971 0 0 0 0 0 1 -3.32994 0 2
32 1 10.737 1.78257 1.78278 4.11283 1.95615 -7.35501 1 -7.3242 0.0465812 4
33 1 12.48 1.78286 0 0 0 0 1 -3.34045 0 2
34 1 11.5886 0.891429 0.891429 0 0 0 1 -7.0215 0 4
35 1 11.593 2.65021 2.71791 -0.760729 -6.56228 -6.16782 1 -7.28135 0.0508424 4
36 1 8.91589 3.52765 1.7905 -3.34046 1.12384 6.60092 1 -7.37292 0.034852 4
37 1 10.6971 3.56572 0 0 0 0 1 -3.32891 0 2
38 1 12.4895 3.56039 1.77609 -1.39587 -4.64007 -8.11635 1 -7.30831 0.0556162 4
39 1 8.94499 1.77695 3.56878 0.449223 -3.60752 -9.90534 1 -7.36929 0.0692958 4
40 1 12.4882 1.72516 3.56856 -2.85346 1.19689 5.79537 1 -7.30411 0.0268646 4
41 1 10.7178 3.57112 3.58032 -5.34654 -2.33182 -3.08243 1 -7.408 0.0270906 4
319 1 10.7238 -0.0121174 3.58682 2.08739 3.25508 -4.24972 1 -7.33464 0.0205481 4
320 1 8.92613 -0.00264867 1.80708 14.6493 -5.74726 2.71801 1 -7.34253 0.158732 4
321 1 12.4486 -0.0462988 1.76311 -2.64291 -0.259209 6.30632 1 -7.39451 0.0291431 4
42 1 13.3338 0.852086 2.64966 5.93808 -3.93364 0.977746 1 -7.36031 0.0321734 4
43 1 13.3714 2.67429 0.891429 0 0 0 1 -6.98819 0 4
44 1 14.2629 0 0 0 0 0 1 -3.33784 0 2
45 1 14.2814 1.76637 1.79743 3.11981 2.73806 7.95486 1 -7.34899 0.0501116 4
46 1 16.0457 1.78286 0 0 0 0 1 -3.33601 0 2
47 1 15.1543 0.891429 0.891429 0 0 0 1 -7.01204 0 4
48 1 15.1415 2.68598 2.62621 -2.38443 -6.09726 0.69786 1 -7.34756 0.0269816 4
49 1 16.9356 0.897008 2.65388 -3.11696 -5.93659 1.6883 1 -7.30717 0.0297575 4
50 1 16.9371 2.67429 0.891429 0 0 0 1 -7.01533 0 4
51 1 14.2629 3.56572 0 0 0 0 1 -3.327 0 2
52 1 16.0342 3.56459 1.76982 -6.86268 5.46776 -1.92617 1 -7.37811 0.0502317 4
53 1 16.0482 1.79432 3.5606 -0.172243 -4.09732 2.55789 1 -7.32867 0.0145402 4
54 1 14.254 3.55649 3.58194 2.49785 -9.92559 6.28249 1 -7.35624 0.0897703 4
336 1 14.247 0.0113808 3.57651 0.696463 4.3977 0.812367 1 -7.27258 0.0127502 4
57 1 17.8286 0 0 0 0 0 1 -3.34114 0 2
58 1 17.8332 1.79749 1.79306 -4.85681 1.66596 0.565153 1 -7.36989 0.0166084 4
59 1 19.6114 1.78286 0 0 0 0 1 -3.3373 0 2
60 1 18.72 0.891429 0.891429 0 0 0 1 -6.99913 0 4
61 1 18.7394 2.67476 2.67606 -6.77523 -0.820849 -4.63008 1 -7.38519 0.0423344 4
62 1 20.5104 0.881123 2.68441 0.564403 3.38891 0.0637361 1 -7.28843 0.0073492 4
63 1 20.5029 2.67429 0.891429 0 0 0 1 -7.03326 0 4
64 1 17.8286 3.56572 0 0 0 0 1 -3.33496 0 2
65 1 19.6529 3.56885 1.78896 -0.475229 -1.27853 4.03595 1 -7.34418 0.0112967 4
66 1 19.5897 1.79941 3.55485 -3.67098 -3.468 -0.0585448 1 -7.33812 0.0158759 4
67 1 17.8174 3.57569 3.54213 4.02083 -0.968013 -1.91603 1 -7.29795 0.0129311 4
68 1 19.6238 0.0193087 1.76133 -2.20862 2.27498 -2.1201 1 -7.34085 0.00905528 4
69 1 1.78286 5.34857 0 0 0 0 1 -3.32289 0 2
70 1 0.891429 4.45714 0.891429 0 0 0 1 -7.0042 0 4
71 1 0.898463 6.22811 2.71155 -0.355761 -1.67095 0.372439 1 -7.32712 0.00190297 4
72 1 2.70787 4.48583 2.6758 -2.74598 9.40297 -3.81159 1 -7.25425 0.0687684 4
73 1 2.67429 6.24 0.891429 0 0 0 1 -7.001 0 4
74 1 3.57608 5.39459 1.77262 3.13253 -2.27104 4.97689 1 -7.35315 0.0247351 4
75 1 0 7.13143 0 0 0 0 1 -3.34231 0 2
76 1 1.74759 7.13195 1.80597 3.21664 -6.37419 0.123465 1 -7.27713 0.031739 4
77 1 0.891429 8.02286 0.891429 0 0 0 1 -7.04671 0 4
78 1 2.69262 8.04797 2.69368 -3.52214 8.70962 -9.15536 1 -7.31854 0.107109 4
79 1 3.56572 7.13143 0 0 0 0 1 -3.32701 0 2
80 1 1.7576 5.32726 3.55745 5.06819 5.01393 13.3134 1 -7.38824 0.141959 4
81 1 3.52136 7.11421 3.58103 7.25094 -5.89149 -3.08335 1 -7.38779 0.0602464 4
128 1 -0.00602739 5.36969 1.78793 -4.97235 -2.92015 1.56021 1 -7.34919 0.0222118 4
82 1 -0.0510819 7.14499 3.56835 3.34621 2.58294 -2.71215 1 -7.31035 0.0157004 4
83 1 5.34857 5.34857 0 0 0 0 1 -3.3248 0 2
84 1 4.45714 4.45714 0.891429 0 0 0 1 -7.01184 0 4
85 1 4.43414 6.24604 2.67891 0.850104 -4.5962 5.98982 1 -7.3339 0.03593 4
86 1 6.21856 4.37744 2.66301 -2.01259 4.07619 7.41916 1 -7.31972 0.0471237 4
87 1 6.24 6.24 0.891429 0 0 0 1 -7.01211 0 4
88 1 7.11544 5.32864 1.78477 -2.58086 7.45678 -0.444601 1 -7.29662 0.038878 4
89 1 8.02286 4.45714 0.891429 0 0 0 1 -6.97694 0 4
90 1 8.04384 6.26599 2.65873 3.71366 3.93886 -4.71777 1 -7.29255 0.0320943 4
91 1 5.36468 7.13545 1.77641 -4.99328 -2.2943 -0.750284 1 -7.35004 0.0191456 4
92 1 4.45714 8.02286 0.891429 0 0 0 1 -7.02588 0 4
93 1 6.26252 8.00556 2.64113 6.7146 -1.24247 -1.25295 1 -7.29143 0.0300006 4
94 1 7.13143 7.13143 0 0 0 0 1 -3.34149 0 2
95 1 8.02286 8.02286 0.891429 0 0 0 1 -6.99307 0 4
96 1 5.34937 5.32702 3.53405 1.65225 -8.47552 2.82057 1 -7.32484 0.0513626 4
97 1 7.11932 7.11931 3.58304 -6.05402 0.514415 -3.55996 1 -7.3502 0.0308656 4
98 1 8.91429 5.34857 0 0 0 0 1 -3.33732 0 2
99 1 9.81808 4.42647 2.6629 4.74077 1.00563 1.34044 1 -7.33605 0.0157368 4
100 1 9.80572 6.24 0.891429 0 0 0 1 -6.99919 0 4
101 1 10.7076 5.3021 1.77433 0.901812 6.70098 -2.69327 1 -7.31681 0.03297 4
102 1 12.48 5.34857 0 0 0 0 1 -3.326 0 2
103 1 11.5886 4.45714 0.891429 0 0 0 1 -7.0485 0 4
104 1 11.5459 6.23766 2.70607 0.0813964 2.48514 1.98119 1 -7.33736 0.00629126 4
105 1 8.9281 7.13518 1.7727 -1.40808 -2.30934 4.12167 1 -7.38612 0.0151274 4
106 1 9.82197 8.03467 2.66504 -7.78563 3.34006 3.04348 1 -7.35167 0.0504382 4
107 1 10.6971 7.13143 0 0 0 0 1 -3.31913 0 2
108 1 12.4422 7.10315 1.77704 -2.53508 8.96204 -7.61186 1 -7.33654 0.0900559 4
109 1 11.5886 8.02286 0.891429 0 0 0 1 -6.97586 0 4
110 1 8.93951 5.37608 3.54153 -0.916709 1.61969 -1.27378 1 -7.34225 0.00316583 4
111 1 12.4455 5.34388 3.56399 2.36306 -7.09965 1.57328 1 -7.32343 0.0363897 4
112 1 10.6895 7.15991 3.56056 7.29505 1.45167 -2.80849 1 -7.37537 0.0393453 4
113 1 13.3491 4.45025 2.68468 -3.03025 6.26633 2.27718 1 -7.29697 0.0333838 4
114 1 13.3714 6.24 0.891429 0 0 0 1 -7.03593 0 4
115 1 14.2614 5.36393 1.74717 3.52645 -1.36123 -4.40232 1 -7.30018 0.0209566 4
116 1 16.0457 5.34857 0 0 0 0 1 -3.32699 0 2
117 1 15.1543 4.45714 0.891429 0 0 0 1 -7.03382 0 4
118 1 15.1714 6.25144 2.67596 -12.1465 -3.43369 3.93908 1 -7.28769 0.108827 4
119 1 16.9418 4.42787 2.70676 -7.94989 2.00902 -6.34974 1 -7.35373 0.0669458 4
120 1 16.9371 6.24 0.891429 0 0 0 1 -7.01898 0 4
121 1 13.326 8.01761 2.62568 -2.29403 -2.2616 -0.524173 1 -7.27801 0.0066302 4
122 1 14.2629 7.13143 0 0 0 0 1 -3.34059 0 2
123 1 16.0771 7.14851 1.75193 2.7212 -4.50528 -4.58589 1 -7.34842 0.0303326 4
124 1 15.1543 8.02286 0.891429 0 0 0 1 -7.02802 0 4
125 1 17.01 8.01872 2.66656 0.101075 1.48578 -0.589818 1 -7.28394 0.00159692 4
126 1 16.0563 5.36171 3.55477 9.03892 1.92896 -1.29407 1 -7.39014 0.0542118 4
127 1 14.2171 7.08928 3.5462 1.56606 0.609104 2.20637 1 -7.2503 0.00478745 4
129 1 17.8301 5.33054 1.76501 -5.69841 -2.24658 -10.126 1 -7.32875 0.087174 4
130 1 19.6114 5.34857 0 0 0 0 1 -3.31672 0 2
131 1 18.72 4.45714 0.891429 0 0 0 1 -7.00475 0 4
132 1 18.7215 6.23981 2.67236 -1.14935 5.70959 3.11998 1 -7.33931 0.0271718 4
133 1 20.5251 4.48532 2.68745 0.418365 6.78669 9.3443 1 -7.40413 0.0831251 4
134 1 20.5029 6.24 0.891429 0 0 0 1 -7.02051 0 4
135 1 17.8286 7.13143 0 0 0 0 1 -3.31589 0 2
136 1 19.5607 7.11711 1.7808 -1.79438 -4.98645 5.44984 1 -7.32395 0.0359671 4
137 1 18.72 8.02286 0.891429 0 0 0 1 -6.99881 0 4
138 1 20.4761 8.04367 2.64488 2.6851 3.95008 -0.56022 1 -7.30108 0.0143947 4
139 1 19.618 5.34907 3.57108 0.965566 -1.21025 3.66815 1 -7.31958 0.00986692 4
140 1 17.8497 7.17443 3.56966 -10.3613 3.04562 -2.04886 1 -7.3315 0.0752083 4
141 1 1.78286 8.91429 0 0 0 0 1 -3.34696 0 2
142 1 0.885093 9.79871 2.66901 5.35306 -2.6723 2.76631 1 -7.34496 0.0270438 4
143 1 2.67429 9.80572 0.891429 0 0 0 1 -7.00527 0 4
144 1 3.54667 8.92217 1.76241 3.34891 -4.36435 3.02049 1 -7.39891 0.024515 4
145 1 0 10.6971 0 0 0 0 1 -3.35717 0 2
146 1 1.77628 10.7224 1.78653 -0.455788 5.93052 -8.42983 1 -7.34544 0.0662516 4
147 1 1.78286 12.48 0 0 0 0 1 -3.31598 0 2
148 1 0.891429 11.5886 0.891429 0 0 0 1 -7.05806 0 4
149 1 2.6973 11.565 2.6891 3.64764 4.35899 -0.716645 1 -7.39805 0.0204278 4
150 1 3.56572 10.6971 0 0 0 0 1 -3.33267 0 2
151 1 3.56678 12.4651 1.79994 2.10551 1.5279 8.05928 1 -7.29144 0.0446402 4
152 1 1.77543 8.89877 3.57478 -4.61664 2.63691 -0.227849 1 -7.35103 0.0176262 4
153 1 1.7975 12.4641 3.54737 -1.1235 5.99725 2.33211 1 -7.32259 0.0265577 4
154 1 3.55463 10.6775 3.56458 -1.15311 -0.336335 4.60831 1 -7.37251 0.0141162 4
205 1 0.021523 8.88733 1.77539 7.79864 -5.71945 -1.6322 1 -7.36008 0.0598743 4
204 1 0.0274687 12.5029 1.75508 12.8013 -1.76385 -1.01066 1 -7.34603 0.104571 4
155 1 5.34857 8.91429 0 0 0 0 1 -3.32749 0 2
156 1 4.40697 9.81201 2.67858 -4.04315 -1.97126 -4.08026 1 -7.35279 0.022956 4
157 1 6.24 9.80572 0.891429 0 0 0 1 -6.98865 0 4
158 1 7.13579 8.93208 1.78403 6.03587 8.41645 3.76287 1 -7.38299 0.0755796 4
159 1 8.03001 9.82228 2.64133 11.7641 6.87387 3.23545 1 -7.32942 0.122066 4
160 1 5.31028 10.7089 1.80926 3.39257 -0.592909 -9.90878 1 -7.35324 0.0684949 4
161 1 5.34857 12.48 0 0 0 0 1 -3.35258 0 2
162 1 4.45714 11.5886 0.891429 0 0 0 1 -6.98799 0 4
163 1 6.20344 11.5999 2.65744 -12.1471 2.55772 3.67393 1 -7.34857 0.104313 4
164 1 7.13143 10.6971 0 0 0 0 1 -3.34045 0 2
165 1 7.11631 12.4812 1.81154 -1.88078 -0.0198158 2.86296 1 -7.38626 0.00730371 4
166 1 8.02286 11.5886 0.891429 0 0 0 1 -7.01602 0 4
167 1 5.29711 8.87997 3.59247 0.644791 4.45764 -3.52873 1 -7.25188 0.0203771 4
168 1 5.32166 12.4689 3.6256 -0.0349088 5.60849 -5.75991 1 -7.32699 0.0402292 4
169 1 7.09333 10.7074 3.55257 -4.08633 -0.493518 -7.66262 1 -7.30539 0.0470911 4
170 1 8.91429 8.91429 0 0 0 0 1 -3.32107 0 2
171 1 9.80572 9.80572 0.891429 0 0 0 1 -6.98927 0 4
172 1 10.6866 8.9289 1.78285 0.516663 10.9355 1.7186 1 -7.36594 0.0764369 4
173 1 12.48 8.91429 0 0 0 0 1 -3.35288 0 2
174 1 11.6415 9.81164 2.66972 -0.333855 10.7994 1.16115 1 -7.34464 0.0735007 4
175 1 8.86916 10.7388 1.78173 -4.07851 -1.94089 0.444696 1 -7.30774 0.0128214 4
176 1 8.91429 12.48 0 0 0 0 1 -3.35233 0 2
177 1 9.80218 11.6305 2.70786 -2.45281 2.29273 5.21255 1 -7.24172 0.0239283 4
178 1 10.6971 10.6971 0 0 0 0 1 -3.33727 0 2
179 1 10.7009 12.4994 1.78389 6.27233 -9.39419 -2.73057 1 -7.35846 0.084058 4
180 1 12.5267 10.6936 1.77312 -1.70213 0.383406 -5.47879 1 -7.40113 0.0205783 4
181 1 12.48 12.48 0 0 0 0 1 -3.31197 0 2
182 1 11.5886 11.5886 0.891429 0 0 0 1 -7.01153 0 4
183 1 8.86209 8.913 3.57548 3.47124 0.656429 -2.3553 1 -7.35684 0.011221 4
184 1 12.4656 8.92102 3.57086 -0.132435 -2.97414 5.54171 1 -7.35758 0.0246317 4
185 1 8.89393 12.5048 3.59346 0.802358 -0.996125 3.79735 1 -7.35022 0.00999363 4
186 1 10.7245 10.6727 3.59079 2.45508 10.6099 -2.38261 1 -7.31119 0.077351 4
187 1 12.4648 12.4913 3.6104 -3.71422 3.65427 3.15948 1 -7.30592 0.0231115 4
188 1 13.3714 9.80572 0.891429 0 0 0 1 -7.00439 0 4
189 1 14.2611 8.92959 1.75631 -12.3042 -3.59331 -7.88202 1 -7.40066 0.140936 4
190 1 16.0457 8.91429 0 0 0 0 1 -3.32942 0 2
191 1 15.1463 9.82567 2.61144 -0.952942 -2.32169 4.46608 1 -7.26445 0.0163351 4
192 1 16.9371 9.80572 0.891429 0 0 0 1 -7.00501 0 4
193 1 13.3966 11.5878 2.63221 -5.18651 8.29991 2.21805 1 -7.25563 0.0626834 4
194 1 14.2629 10.6971 0 0 0 0 1 -3.33699 0 2
195 1 14.2702 12.4594 1.76711 -8.77854 5.63851 -0.869404 1 -7.37486 0.0682251 4
196 1 16.0869 10.7554 1.77152 -5.5796 0.720846 -2.89725 1 -7.31306 0.0249254 4
197 1 16.0457 12.48 0 0 0 0 1 -3.31832 0 2
198 1 15.1543 11.5886 0.891429 0 0 0 1 -7.0015 0 4
199 1 16.9022 11.6042 2.72495 1.65182 6.58174 -2.22015 1 -7.39067 0.0317294 4
200 1 16.0406 8.91237 3.55605 -5.39159 -1.83238 4.4126 1 -7.27661 0.0323026 4
201 1 14.2938 10.7006 3.5702 -6.42327 -4.45461 7.04427 1 -7.3052 0.0689174 4
202 1 16.0271 12.48 3.60009 0.234784 -1.12074 1.29666 1 -7.40469 0.00186262 4
203 1 21.4214 10.7128 3.58834 0.861845 -6.7323 -0.332548 1 -7.32773 0.0287419 4
206 1 17.8416 8.90281 1.80649 -11.0058 -2.36919 1.82619 1 -7.33278 0.0809618 4
207 1 19.6114 8.91429 0 0 0 0 1 -3.34868 0 2
208 1 18.7406 9.80566 2.7057 3.75557 0.428001 -7.11073 1 -7.32865 0.0403643 4
209 1 20.5029 9.80572 0.891429 0 0 0 1 -6.99243 0 4
210 1 17.8286 10.6971 0 0 0 0 1 -3.30286 0 2
211 1 17.7667 12.5137 1.82352 -2.57316 -3.54446 -3.14648 1 -7.25716 0.0181031 4
212 1 19.6249 10.6477 1.82505 -8.89663 -3.4521 4.91695 1 -7.28712 0.0717305 4
213 1 19.6114 12.48 0 0 0 0 1 -3.34636 0 2
214 1 18.72 11.5886 0.891429 0 0 0 1 -6.87831 0 4
215 1 20.5051 11.6325 2.70853 -3.67055 -6.44358 -2.63446 1 -7.26469 0.0385487 4
216 1 19.6256 8.93967 3.61088 -4.04156 -0.683752 2.2026 1 -7.3078 0.0134775 4
217 1 17.7799 10.7152 3.58759 -0.921612 -4.20438 -2.96131 1 -7.31735 0.0169894 4
218 1 19.5826 12.4972 3.55047 0.838601 6.65601 -6.85983 1 -7.38439 0.0573024 4
219 1 0.902833 13.3826 2.64953 -1.81039 0.350631 1.45987 1 -7.35248 0.00344306 4
220 1 2.67429 13.3714 0.891429 0 0 0 1 -7.01831 0 4
221 1 0 14.2629 0 0 0 0 1 -3.30366 0 2
222 1 1.78312 14.256 1.76239 4.47322 -4.05146 -1.2974 1 -7.34917 0.0237189 4
223 1 1.78286 16.0457 0 0 0 0 1 -3.32399 0 2
224 1 0.891429 15.1543 0.891429 0 0 0 1 -7.04688 0 4
225 1 0.874617 16.9237 2.65471 1.3368 2.12969 -2.42029 1 -7.35805 0.00758142 4
226 1 2.69682 15.0914 2.70733 -1.60871 3.86633 -9.66083 1 -7.2915 0.0690073 4
227 1 2.67429 16.9371 0.891429 0 0 0 1 -7.05005 0 4
228 1 3.56572 14.2629 0 0 0 0 1 -3.33019 0 2
229 1 3.51972 16.0655 1.7894 3.65639 7.22478 -2.52892 1 -7.30001 0.0447911 4
230 1 1.80534 16.0197 3.58729 0.419367 4.44492 5.07682 1 -7.2964 0.0284494 4
231 1 3.55726 14.2139 3.60578 -1.11086 0.761479 4.58755 1 -7.32427 0.0142283 4
233 1 0.00165081 16.0259 1.74474 5.61077 3.34795 0.886365 1 -7.35748 0.0270601 4
232 1 0.0188401 14.25 3.51267 0.610815 2.38541 -5.13739 1 -7.38755 0.0202015 4
234 1 4.5031 13.3763 2.71801 0.789242 -2.43073 -2.23343 1 -7.28584 0.0071701 4
235 1 6.24 13.3714 0.891429 0 0 0 1 -6.99971 0 4
236 1 7.99829 13.3515 2.71974 0.77401 -8.21737 -0.131168 1 -7.35404 0.042413 4
237 1 5.3414 14.2597 1.80482 -0.499808 2.8347 5.74493 1 -7.41096 0.0256997 4
238 1 5.34857 16.0457 0 0 0 0 1 -3.34215 0 2
239 1 4.45714 15.1543 0.891429 0 0 0 1 -6.96117 0 4
240 1 4.45344 16.8934 2.6879 -2.3313 3.72865 -4.25753 1 -7.3041 0.0233188 4
241 1 6.21807 15.1595 2.69373 5.68652 2.78188 -2.38292 1 -7.25922 0.0284783 4
242 1 6.24 16.9371 0.891429 0 0 0 1 -6.97399 0 4
243 1 7.13143 14.2629 0 0 0 0 1 -3.35448 0 2
244 1 7.16505 16.0617 1.78069 -3.33229 1.47376 -4.0419 1 -7.29276 0.018432 4
245 1 8.02286 15.1543 0.891429 0 0 0 1 -6.99697 0 4
246 1 8.08615 16.8964 2.67669 -0.586792 -1.59895 -5.50574 1 -7.34323 0.0206733 4
247 1 5.34926 16.0552 3.59691 -3.13284 -6.32848 -0.0181348 1 -7.37549 0.0310371 4
248 1 7.15439 14.2736 3.63863 -1.02553 -1.34277 -3.41314 1 -7.28462 0.00902786 4
249 1 9.80572 13.3714 0.891429 0 0 0 1 -7.03112 0 4
250 1 11.5837 13.3798 2.69534 -1.78223 0.970297 5.04967 1 -7.31432 0.0184344 4
251 1 8.92288 14.2516 1.79674 -0.0444776 8.0221 4.2726 1 -7.32981 0.0514194 4
252 1 8.91429 16.0457 0 0 0 0 1 -3.32817 0 2
253 1 9.79446 15.1484 2.68791 3.47278 4.341 -2.92016 1 -7.30795 0.0245434 4
254 1 9.80572 16.9371 0.891429 0 0 0 1 -6.99121 0 4
255 1 10.6971 14.2629 0 0 0 0 1 -3.34146 0 2
256 1 10.6919 16.06 1.78142 -9.40072 -0.691429 -2.14305 1 -7.3898 0.0581622 4
257 1 12.4695 14.3012 1.77241 -0.125521 1.38086 5.47583 1 -7.36049 0.0198599 4
258 1 12.48 16.0457 0 0 0 0 1 -3.32208 0 2
259 1 11.5886 15.1543 0.891429 0 0 0 1 -7.02225 0 4
260 1 11.5828 16.9566 2.60861 -0.52902 6.4594 2.04708 1 -7.30448 0.0287525 4
261 1 8.92041 16.0153 3.60704 3.27438 1.10144 3.88981 1 -7.41092 0.0168462 4
262 1 10.6773 14.2403 3.62925 1.88202 7.26312 3.2431 1 -7.30436 0.0415859 4
263 1 12.4957 16.0459 3.53327 -2.98843 -1.99066 3.19577 1 -7.26851 0.014382 4
264 1 13.3714 13.3714 0.891429 0 0 0 1 -7.00139 0 4
265 1 15.1729 13.3339 2.70147 4.44824 -9.77423 -5.00759 1 -7.34722 0.0873876 4
266 1 16.9371 13.3714 0.891429 0 0 0 1 -6.99116 0 4
267 1 13.3817 15.1655 2.64001 -0.31851 6.4679 1.70744 1 -7.37471 0.0279162 4
268 1 13.3714 16.9371 0.891429 0 0 0 1 -7.01241 0 4
269 1 14.2629 14.2629 0 0 0 0 1 -3.31494 0 2
270 1 14.2694 16.0294 1.744 -6.58993 -0.471916 4.91282 1 -7.32801 0.0421916 4
271 1 16.0279 14.2449 1.80555 -2.30714 1.86716 1.55807 1 -7.31622 0.00699406 4
272 1 16.0457 16.0457 0 0 0 0 1 -3.3482 0 2
273 1 15.1543 15.1543 0.891429 0 0 0 1 -7.04325 0 4
274 1 15.1537 16.9695 2.67556 0.43292 3.11593 -4.7176 1 -7.23925 0.0200124 4
275 1 16.9118 15.1169 2.68323 -0.216966 -7.69548 -6.10106 1 -7.31526 0.0600581 4
276 1 16.9371 16.9371 0.891429 0 0 0 1 -7.0714 0 4
277 1 14.2608 14.2786 3.56251 -8.28862 -1.24357 6.68563 1 -7.34689 0.0715449 4
278 1 16.0309 16.0214 3.57166 -0.699178 5.2458 1.70163 1 -7.29071 0.0192347 4
279 1 18.6897 13.3885 2.67013 2.71941 0.365422 0.412479 1 -7.33739 0.00479199 4
280 1 20.5029 13.3714 0.891429 0 0 0 1 -7.01641 0 4
281 1 17.8286 14.2629 0 0 0 0 1 -3.34806 0 2
282 1 17.7939 16.059 1.77846 6.4824 6.64754 3.22445 1 -7.3422 0.0601316 4
283 1 19.6062 14.2737 1.74668 12.2617 -6.41038 6.84134 1 -7.37446 0.14829 4
284 1 19.6114 16.0457 0 0 0 0 1 -3.31421 0 2
285 1 18.72 15.1543 0.891429 0 0 0 1 -6.98536 0 4
286 1 18.7179 16.8796 2.64205 3.20818 -1.99931 -4.77929 1 -7.38723 0.0231115 4
287 1 20.5165 15.1278 2.62242 0.199949 -10.1824 -0.2822 1 -7.33173 0.0646088 4
288 1 20.5029 16.9371 0.891429 0 0 0 1 -7.03121 0 4
289 1 17.8339 14.2049 3.56654 0.307015 -5.77187 -0.689835 1 -7.30408 0.0210907 4
290 1 19.5812 16.024 3.52485 3.57534 -0.0996624 3.09496 1 -7.32559 0.0139248 4
293 1 0 17.8286 0 0 0 0 1 -3.32973 0 2
294 1 1.75191 17.8243 1.77787 -1.0328 5.16645 -4.70753 1 -7.3777 0.0310713 4
295 1 1.78286 19.6114 0 0 0 0 1 -3.34092 0 2
296 1 0.891429 18.72 0.891429 0 0 0 1 -7.00412 0 4
297 1 0.866083 20.5183 2.701 0.897462 -0.604359 -2.6794 1 -7.32029 0.00519717 4
298 1 2.62606 18.7001 2.63058 -3.24103 6.66841 3.64533 1 -7.40135 0.0424871 4
299 1 2.67429 20.5029 0.891429 0 0 0 1 -7.04501 0 4
300 1 3.56572 17.8286 0 0 0 0 1 -3.33038 0 2
301 1 3.51312 19.6198 1.76958 0.232294 7.76294 9.44302 1 -7.32727 0.0930451 4
302 1 1.75665 19.5856 3.52117 2.31037 -3.27949 -8.19481 1 -7.28108 0.0518156 4
303 1 3.5319 17.8476 3.58183 -5.27665 -0.854924 -8.2905 1 -7.27701 0.060566 4
305 1 -0.037833 19.6237 1.78531 -1.45269 -1.55917 3.12353 1 -7.33698 0.00889931 4
304 1 -0.0469503 17.79 3.5494 5.02455 -6.06331 4.30942 1 -7.2962 0.0501557 4
27 1 5.34253 21.3474 1.77426 -9.3959 -2.20394 2.20591 1 -7.36144 0.0610017 4
307 1 5.31426 17.8108 1.82308 0.190059 5.12788 -4.19653 1 -7.31344 0.0273507 4
308 1 5.34857 19.6114 0 0 0 0 1 -3.3326 0 2
309 1 4.45714 18.72 0.891429 0 0 0 1 -6.96353 0 4
310 1 4.45973 20.4882 2.64698 3.67828 -6.38132 3.7012 1 -7.36568 0.0422938 4
311 1 6.23752 18.7172 2.6677 -3.16326 -1.5912 1.57486 1 -7.32975 0.0093478 4
312 1 6.24 20.5029 0.891429 0 0 0 1 -7.01544 0 4
313 1 7.13143 17.8286 0 0 0 0 1 -3.3259 0 2
314 1 7.12293 19.5856 1.76368 1.14896 4.75673 3.54866 1 -7.39374 0.0227432 4
315 1 8.02286 18.72 0.891429 0 0 0 1 -7.03887 0 4
316 1 8.02556 20.4451 2.68315 -5.98854 -2.55461 -2.86598 1 -7.2805 0.0314963 4
317 1 5.35246 19.6392 3.56201 -2.28079 -3.02291 -5.71073 1 -7.3653 0.0292244 4
318 1 7.12524 17.7774 3.5512 8.65583 5.1737 3.9018 1 -7.3471 0.0727707 4
322 1 8.91303 17.8206 1.78173 -9.21787 -2.19103 -3.9482 1 -7.39033 0.0655776 4
323 1 8.91429 19.6114 0 0 0 0 1 -3.34139 0 2
324 1 9.80604 18.6989 2.63336 1.84239 -4.32171 1.38612 1 -7.27635 0.0149338 4
325 1 9.80572 20.5029 0.891429 0 0 0 1 -7.01559 0 4
326 1 10.6971 17.8286 0 0 0 0 1 -3.32595 0 2
327 1 10.6672 19.622 1.75762 -1.35799 -0.101198 -3.15566 1 -7.3478 0.00735245 4
328 1 12.496 17.8215 1.77561 -2.54215 4.19784 -6.13694 1 -7.36727 0.0384325 4
329 1 12.48 19.6114 0 0 0 0 1 -3.31558 0 2
330 1 11.5886 18.72 0.891429 0 0 0 1 -6.96538 0 4
331 1 11.5971 20.4672 2.65403 1.9179 -0.494751 -2.29458 1 -7.35174 0.00571898 4
332 1 8.89683 19.5904 3.5906 5.0739 -2.65557 -2.41738 1 -7.32086 0.0240507 4
333 1 10.7335 17.8503 3.55457 -4.79396 -5.23081 -4.04404 1 -7.31129 0.0415144 4
334 1 12.4593 19.5543 3.56439 -10.7602 4.90637 5.68044 1 -7.33693 0.107133 4
335 1 16.0508 21.3831 1.76161 0.0290455 0.103287 2.72137 1 -7.34674 0.00461675 4
337 1 13.3968 18.7203 2.65897 -2.56162 4.70415 -1.87019 1 -7.32859 0.020035 4
338 1 13.3714 20.5029 0.891429 0 0 0 1 -7.02799 0 4
339 1 14.2629 17.8286 0 0 0 0 1 -3.33593 0 2
340 1 14.2768 19.6286 1.76578 -3.73433 -2.25892 -3.88411 1 -7.39261 0.021246 4
341 1 16.0888 17.8329 1.76297 -4.58991 -1.99561 0.829426 1 -7.33178 0.0160198 4
342 1 16.0457 19.6114 0 0 0 0 1 -3.31165 0 2
343 1 15.1543 18.72 0.891429 0 0 0 1 -6.99742 0 4
344 1 15.1379 20.4918 2.67612 3.49399 2.20949 -7.69776 1 -7.32314 0.0475193 4
345 1 16.9369 18.7236 2.66059 -1.7474 -0.44303 -3.11715 1 -7.28896 0.00807059 4
346 1 16.9371 20.5029 0.891429 0 0 0 1 -7.03221 0 4
347 1 14.2978 17.829 3.54898 0.26943 -2.36489 1.4825 1 -7.38335 0.0048942 4
348 1 16.0413 19.6166 3.55045 -2.57243 1.95509 -2.58191 1 -7.35116 0.0106472 4
350 1 21.4184 21.4024 3.57427 1.85662 -4.58864 0.14741 1 -7.37787 0.0152646 4
349 1 17.8172 21.4113 3.58918 1.55497 -4.89745 1.02424 1 -7.36435 0.0170869 4
351 1 17.8286 17.8286 0 0 0 0 1 -3.31639 0 2
352 1 17.8132 19.6325 1.77046 2.52602 3.66997 -0.972445 1 -7.37979 0.0129434 4
353 1 19.6105 17.7805 1.77954 -1.40185 5.43227 2.60775 1 -7.36921 0.0238234 4
354 1 19.6114 19.6114 0 0 0 0 1 -3.3363 0 2
355 1 18.72 18.72 0.891429 0 0 0 1 -6.97716 0 4
356 1 18.6855 20.5368 2.6498 -1.18116 -6.70365 -4.86261 1 -7.32879 0.0435568 4
357 1 20.4592 18.7253 2.66341 7.48045 2.11176 -4.03284 1 -7.34727 0.0477279 4
358 1 20.5029 20.5029 0.891429 0 0 0 1 -7.03265 0 4
359 1 17.8437 17.76 3.57746 -2.42311 6.0206 -4.45774 1 -7.27092 0.0385845 4
360 1 19.6046 19.6406 3.52121 -0.057238 1.04129 0.311373 1 -7.38216 0.000737271 4
361 1 0.860336 0.887694 4.4235 -4.1246 -3.74743 4.19733 1 -7.42772 0.0302954 4
362 1 0.85781 2.62632 6.25879 -5.31359 -0.486582 2.15509 1 -7.33334 0.0206119 4
363 1 2.63022 0.82783 6.22169 1.99962 -2.49056 -0.312331 1 -7.35769 0.00641031 4
364 1 2.68168 2.64009 4.44614 6.40518 -8.85564 1.58587 1 -7.29527 0.0759134 4
365 1 3.54645 1.71513 5.37297 4.52708 10.4084 4.27558 1 -7.2649 0.0915648 4
366 1 1.76902 3.55619 5.38652 0.221707 3.69307 -1.62827 1 -7.26002 0.0101699 4
367 1 1.74217 1.68001 7.12706 1.50779 5.58444 5.45507 1 -7.31924 0.0393481 4
368 1 0.846231 0.810283 8.0558 -1.26832 8.36425 -3.88456 1 -7.3566 0.0539389 4
369 1 2.68081 2.62591 7.94707 -5.2779 -0.156417 -0.151641 1 -7.30483 0.017368 4
370 1 3.53025 3.55016 7.10487 -5.44042 7.15193 -1.22524 1 -7.3318 0.0511942 4
651 1 3.59222 -0.000449522 7.11482 -5.42025 -1.71416 4.34289 1 -7.3051 0.0318546 4
710 1 0.00130207 -0.0447953 7.12941 3.61832 4.31028 8.25449 1 -7.30719 0.0621227 4
372 1 4.45911 0.830206 4.45771 4.85964 1.02299 1.54984 1 -7.34586 0.0168457 4
373 1 4.45213 2.65275 6.21582 0.275918 1.08999 -4.63762 1 -7.28744 0.0141737 4
374 1 6.18814 0.901061 6.23597 -5.09346 -1.52839 -5.49407 1 -7.37694 0.0363896 4
375 1 6.26287 2.63117 4.38202 8.08571 -9.68913 -0.662909 1 -7.2911 0.0993998 4
376 1 7.08356 1.78614 5.33248 0.202312 -2.68672 -3.84205 1 -7.29717 0.0137063 4
377 1 8.06863 0.899577 4.42253 -14.7104 -4.0327 -4.43553 1 -7.29686 0.157058 4
378 1 8.00286 2.6866 6.21211 -0.0109244 -4.48589 -4.55537 1 -7.36527 0.0254415 4
379 1 5.35169 3.59427 5.292 -4.14425 -9.43452 -7.99221 1 -7.21265 0.10585 4
380 1 5.32646 1.76638 7.11424 5.15429 5.02076 -7.762 1 -7.40991 0.0697263 4
381 1 4.43377 0.897403 7.97804 -4.80211 0.755073 5.23083 1 -7.34253 0.0317388 4
382 1 6.2105 2.61854 8.01494 -0.592663 0.745734 0.832856 1 -7.33994 0.000996515 4
383 1 8.02268 0.920493 8.02462 -2.11554 0.242003 -3.33653 1 -7.36302 0.00975125 4
384 1 7.12062 3.54782 7.10687 7.33793 3.13082 4.30711 1 -7.35877 0.0511625 4
385 1 5.3221 -0.0112384 5.34445 8.37063 -2.92451 -5.21625 1 -7.30653 0.065871 4
386 1 9.80638 0.927705 6.19084 -4.73895 -3.69616 -6.68696 1 -7.33125 0.0503137 4
387 1 9.82051 2.6949 4.41503 -3.42902 -4.34095 -8.77539 1 -7.34907 0.0669789 4
388 1 10.6935 1.81759 5.34158 -0.846164 3.34603 2.78286 1 -7.38334 0.0122345 4
389 1 11.5847 0.894788 4.45198 -3.59459 -0.9139 -6.96263 1 -7.37649 0.0387364 4
390 1 11.5654 2.70252 6.25185 3.24336 7.21732 -2.14893 1 -7.3719 0.0418438 4
391 1 8.91979 3.5691 5.30633 0.0237065 -1.07834 1.12968 1 -7.34102 0.00151845 4
392 1 12.4872 3.58341 5.3795 3.8486 2.82239 -7.06994 1 -7.3109 0.0452887 4
393 1 8.88193 1.81012 7.0622 -2.60744 -3.19246 -3.2653 1 -7.32078 0.0172118 4
394 1 9.79315 2.67505 7.99172 -0.454247 -2.01735 -0.491358 1 -7.35601 0.0028118 4
395 1 12.4752 1.85295 7.15845 -4.1762 0.862338 -6.59353 1 -7.31847 0.0383781 4
396 1 11.5906 0.884231 8.01801 -8.11355 -3.75287 -1.31386 1 -7.3241 0.0508148 4
397 1 10.6701 3.57051 7.12758 0.0487119 -1.27122 8.61025 1 -7.34262 0.0471518 4
398 1 13.359 0.89814 6.2455 -2.01392 2.41685 5.95526 1 -7.30689 0.0282346 4
399 1 13.3602 2.7123 4.45633 9.02815 -4.73267 -5.15051 1 -7.29468 0.0811851 4
400 1 14.2266 1.76327 5.35295 -5.64863 4.11236 -7.90102 1 -7.25149 0.0692415 4
401 1 15.1813 0.88927 4.4753 7.70245 3.9534 -7.36796 1 -7.37131 0.0804448 4
402 1 15.1209 2.68567 6.2397 2.40325 -0.78762 -6.78952 1 -7.27271 0.0326733 4
403 1 16.9252 0.86471 6.25033 -2.26936 7.43081 1.89242 1 -7.3153 0.039803 4
404 1 16.922 2.67038 4.44062 3.89918 -6.41733 -1.44351 1 -7.35044 0.0363929 4
405 1 16.0413 3.58038 5.30906 -1.52595 3.2231 -3.67888 1 -7.33463 0.0163393 4
406 1 13.3498 2.68928 8.04017 -0.583206 3.37261 -6.14607 1 -7.37337 0.0308031 4
407 1 16.0037 1.74897 7.12861 -5.02385 3.91581 -1.57388 1 -7.30824 0.0267953 4
408 1 15.1225 0.869754 8.01565 3.76549 -0.493424 -1.29619 1 -7.35342 0.0100226 4
409 1 16.8928 2.67726 8.02743 1.79395 3.38866 -2.81214 1 -7.31038 0.0140727 4
410 1 14.3032 3.53269 7.15668 -2.27128 1.06611 1.64654 1 -7.35287 0.00560582 4
695 1 14.2441 -0.0286224 7.0874 -2.75783 -4.04847 7.44731 1 -7.37099 0.0494569 4
411 1 21.3718 1.78191 5.31365 -3.04057 -8.98206 7.99218 1 -7.36419 0.0957276 4
371 1 21.4149 3.56467 7.11738 3.51714 4.03324 -1.47954 1 -7.37856 0.0191871 4
412 1 17.8354 1.80443 5.33997 0.163779 6.97697 -1.09265 1 -7.34635 0.0310583 4
413 1 18.7057 0.916915 4.43427 5.73487 -6.00359 3.45453 1 -7.32673 0.0503328 4
414 1 18.6874 2.70111 6.24075 6.19882 -7.3125 -1.47486 1 -7.35139 0.0585536 4
415 1 20.4843 0.894009 6.21702 6.59993 7.29573 5.85108 1 -7.34968 0.0815515 4
416 1 20.5142 2.69541 4.43282 4.58235 4.20032 -8.66187 1 -7.36916 0.0707503 4
417 1 19.595 3.56801 5.32842 -6.48326 1.72745 5.4209 1 -7.30681 0.0463103 4
418 1 19.6378 1.77168 7.08838 2.91645 2.77011 0.535505 1 -7.32953 0.0102488 4
419 1 18.7689 0.869827 8.04452 -6.81509 -5.22679 -3.67883 1 -7.31234 0.0543369 4
420 1 20.4919 2.69014 8.02861 9.74795 5.42338 -0.106158 1 -7.2988 0.077459 4
421 1 17.7869 3.55222 7.13297 -2.08968 5.33946 -0.939322 1 -7.41253 0.0210124 4
423 1 0.828166 4.45141 4.45455 1.06683 -8.52935 2.2044 1 -7.2879 0.0490144 4
424 1 0.842801 6.21059 6.19811 0.0280916 4.06798 -6.17148 1 -7.32166 0.0340071 4
425 1 2.66395 4.46459 6.23045 2.45818 0.522426 -0.228469 1 -7.32904 0.00396346 4
426 1 2.6423 6.20676 4.44958 -1.75138 -0.865045 7.27878 1 -7.26934 0.0353515 4
427 1 3.6019 5.37491 5.37651 -1.05643 1.19916 -2.77113 1 -7.36015 0.00636941 4
428 1 1.70623 7.11671 5.32942 2.32113 0.183734 8.20535 1 -7.27732 0.045281 4
429 1 0.847713 8.00061 4.40913 -5.42304 8.19345 9.4883 1 -7.33997 0.116126 4
430 1 2.64808 7.98652 6.28673 -5.24549 -9.31321 -0.282044 1 -7.24178 0.0711623 4
431 1 1.76699 5.38786 7.13269 0.567299 -3.35661 -4.9471 1 -7.31535 0.0224462 4
432 1 0.857167 4.44979 7.99124 2.25861 3.92295 -0.630485 1 -7.3607 0.0130015 4
433 1 2.63395 6.18893 8.03785 -10.8093 4.87575 -4.14415 1 -7.28744 0.0982116 4
434 1 0.887845 7.99482 8.0264 -7.49685 5.98956 0.718727 1 -7.34104 0.057633 4