ITEM: TIMESTEP
49126100
ITEM: NUMBER OF ATOMS
3060
ITEM: BOX BOUNDS pp pp mm
0.0000000000000000e+00 2.1394294200000001e+01
0.0000000000000000e+00 2.1394294200000001e+01
-5.3491084073550004e-03 5.3485735499999997e+01
ITEM: ATOMS id type x y z vx vy vz c_clusts c_atom_pe c_atom_ke c_atom_coord
1 1 0 0 0 0 0 0 1 -3.33127 0 2
2 1 1.78286 1.78286 0 0 0 0 1 -3.355 0 2
3 1 0.891429 0.891429 0.891429 0 0 0 1 -7.00756 0 4
4 1 0.902761 2.66749 2.65348 1.34955 5.37631 -5.94569 1 -7.36757 0.0411282 4
5 1 2.71506 0.908719 2.72542 -3.2041 5.06833 0.130072 1 -7.3661 0.0223894 4
6 1 2.67429 2.67429 0.891429 0 0 0 1 -6.97326 0 4
7 1 3.56572 0 0 0 0 0 1 -3.34229 0 2
8 1 3.58094 1.78021 1.82364 5.86534 7.96863 5.43194 1 -7.3281 0.0793016 4
9 1 0 3.56572 0 0 0 0 1 -3.36375 0 2
10 1 1.80965 3.56945 1.81538 0.793321 2.49653 0.647408 1 -7.36796 0.00453198 4
11 1 3.56572 3.56572 0 0 0 0 1 -3.33585 0 2
12 1 1.75678 1.7713 3.56913 -6.41047 -10.5387 2.69253 1 -7.3529 0.0992193 4
13 1 3.58158 3.55607 3.5879 -7.78208 12.3474 -6.82413 1 -7.21929 0.161574 4
292 1 1.79587 0.00968006 1.77892 5.33631 -0.933388 -3.27153 1 -7.28772 0.0249284 4
56 1 -0.0228553 3.50182 3.56846 6.26032 -1.43497 -2.20368 1 -7.34679 0.0286982 4
55 1 0.00767465 1.74514 1.79811 2.78214 -5.59852 1.04693 1 -7.33901 0.025009 4
291 1 3.5802 0.0359277 3.57252 4.92848 1.4853 0.649622 1 -7.34734 0.0167545 4
350 1 -0.0121079 -0.00573565 3.58262 -7.95778 -8.42963 6.25814 1 -7.36716 0.108022 4
14 1 5.34857 1.78286 0 0 0 0 1 -3.32902 0 2
15 1 4.45714 0.891429 0.891429 0 0 0 1 -7.01805 0 4
16 1 4.47669 2.67577 2.66345 0.716419 8.50149 -0.64651 1 -7.33105 0.0455657 4
17 1 6.22685 0.850505 2.67309 -10.2264 2.23254 3.36834 1 -7.30096 0.0752565 4
18 1 6.24 2.67429 0.891429 0 0 0 1 -7.03364 0 4
19 1 7.13143 0 0 0 0 0 1 -3.32487 0 2
20 1 7.15501 1.7666 1.74996 -4.38882 -1.50078 2.95033 1 -7.33668 0.0188088 4
21 1 8.02286 0.891429 0.891429 0 0 0 1 -7.02032 0 4
22 1 8.03208 2.63966 2.69296 -11.2033 3.44574 3.87088 1 -7.30263 0.094839 4
23 1 5.36055 3.55783 1.74566 1.68811 4.78374 0.845554 1 -7.41498 0.0164624 4
24 1 7.13143 3.56572 0 0 0 0 1 -3.32982 0 2
25 1 5.32864 1.78673 3.55023 4.43194 4.3274 -9.54663 1 -7.29661 0.0806083 4
26 1 7.17735 3.5784 3.60899 2.62756 2.04239 4.20377 1 -7.28911 0.0178929 4
306 1 7.10978 -0.0146663 3.57767 2.42661 4.76792 -9.13416 1 -7.35115 0.0697456 4
28 1 8.91429 1.78286 0 0 0 0 1 -3.34238 0 2
29 1 9.78443 0.923815 2.68838 11.1397 3.46654 -7.87633 1 -7.33534 0.123332 4
30 1 9.80572 2.67429 0.891429 0 0 0 1 -6.96927 0 4
31 1 10.6971 0 0 0 0 0 1 -3.34028 0 2
32 1 10.7167 1.78328 1.80685 1.05959 -2.43124 3.6403 1 -7.34363 0.0126262 4
33 1 12.48 1.78286 0 0 0 0 1 -3.33068 0 2
34 1 11.5886 0.891429 0.891429 0 0 0 1 -7.02453 0 4
35 1 11.6231 2.65143 2.67436 0.544825 1.13129 5.15221 1 -7.3837 0.0175038 4
36 1 8.90335 3.59602 1.77421 3.94219 1.12602 2.62505 1 -7.27624 0.0147513 4
37 1 10.6971 3.56572 0 0 0 0 1 -3.32356 0 2
38 1 12.4895 3.56039 1.77609 -1.39587 -4.64007 -8.11635 1 -7.38983 0.0556162 4
39 1 8.93003 1.79526 3.56041 -2.97421 1.67233 -1.95141 1 -7.33538 0.00961688 4
40 1 12.4721 1.7787 3.59147 -6.40246 -1.0391 4.03613 1 -7.31988 0.0363258 4
41 1 10.6825 3.5227 3.56602 -3.20789 -2.21174 -1.86882 1 -7.30521 0.0116237 4
319 1 10.695 0.0207483 3.57682 7.11453 7.84928 0.314952 1 -7.3376 0.0699152 4
42 1 13.375 0.848555 2.63853 1.85784 2.73968 6.09472 1 -7.27462 0.0299406 4
43 1 13.3714 2.67429 0.891429 0 0 0 1 -7.04997 0 4
44 1 14.2629 0 0 0 0 0 1 -3.31592 0 2
45 1 14.2421 1.77669 1.75638 -2.30985 -1.8432 -3.31875 1 -7.37152 0.012291 4
46 1 16.0457 1.78286 0 0 0 0 1 -3.32269 0 2
47 1 15.1543 0.891429 0.891429 0 0 0 1 -7.01151 0 4
48 1 15.1857 2.63795 2.66628 8.66946 2.98878 7.23975 1 -7.30437 0.084965 4
49 1 16.9826 0.844873 2.68213 -0.561745 -5.20185 3.6937 1 -7.33084 0.0255308 4
50 1 16.9371 2.67429 0.891429 0 0 0 1 -6.97819 0 4
51 1 14.2629 3.56572 0 0 0 0 1 -3.34397 0 2
52 1 16.0342 3.56459 1.76982 -6.86268 5.46776 -1.92617 1 -7.35142 0.0502317 4
53 1 16.088 1.74153 3.55732 3.83689 4.34336 -4.3751 1 -7.37777 0.0328193 4
54 1 14.2993 3.57589 3.56787 0.839316 5.28171 -0.916413 1 -7.2557 0.0183247 4
336 1 14.227 -0.0233226 3.58285 9.0202 -0.299068 -3.50685 1 -7.30584 0.0583534 4
57 1 17.8286 0 0 0 0 0 1 -3.33954 0 2
58 1 17.872 1.74082 1.77662 -5.55787 -7.15673 -4.04482 1 -7.33253 0.0612899 4
59 1 19.6114 1.78286 0 0 0 0 1 -3.31792 0 2
60 1 18.72 0.891429 0.891429 0 0 0 1 -7.03228 0 4
61 1 18.7097 2.65753 2.67957 -8.26268 1.62298 -0.526901 1 -7.34895 0.0443065 4
62 1 20.5063 0.867106 2.6806 0.871012 -2.30855 -3.69955 1 -7.39224 0.0123083 4
63 1 20.5029 2.67429 0.891429 0 0 0 1 -6.98425 0 4
64 1 17.8286 3.56572 0 0 0 0 1 -3.32752 0 2
65 1 19.5965 3.55295 1.7745 -0.407992 -0.520852 6.34543 1 -7.3225 0.0253342 4
66 1 19.6298 1.74877 3.57149 -4.02089 0.559028 -2.88885 1 -7.35655 0.0154521 4
67 1 17.8296 3.5424 3.5823 -8.61477 -1.16651 0.746688 1 -7.37739 0.0473869 4
68 1 19.6238 0.0193087 1.76133 -2.20862 2.27498 -2.1201 1 -7.36237 0.00905528 4
349 1 17.8163 -0.0196788 3.57599 1.34165 -2.81236 -1.03076 1 -7.30601 0.00670469 4
69 1 1.78286 5.34857 0 0 0 0 1 -3.34532 0 2
70 1 0.891429 4.45714 0.891429 0 0 0 1 -6.97546 0 4
71 1 0.867188 6.27942 2.71274 -4.65298 3.2332 0.560509 1 -7.31429 0.0201778 4
72 1 2.70687 4.46542 2.65738 -2.87402 0.647649 -4.39555 1 -7.36754 0.0174281 4
73 1 2.67429 6.24 0.891429 0 0 0 1 -6.98503 0 4
74 1 3.58652 5.35138 1.78315 -3.99887 11.0023 -0.193239 1 -7.35575 0.0853219 4
75 1 0 7.13143 0 0 0 0 1 -3.35131 0 2
76 1 1.81138 7.14752 1.83866 1.02244 6.09941 0.26864 1 -7.28063 0.0238516 4
77 1 0.891429 8.02286 0.891429 0 0 0 1 -6.97954 0 4
78 1 2.66437 7.98895 2.68798 1.05249 -4.55447 4.04825 1 -7.32673 0.0238011 4
79 1 3.56572 7.13143 0 0 0 0 1 -3.32434 0 2
80 1 1.80928 5.33405 3.58925 -2.11795 -3.18374 0.241575 1 -7.26189 0.0091374 4
81 1 3.55249 7.09434 3.57408 1.36706 -1.28627 -2.8054 1 -7.39486 0.00709167 4
128 1 0.0342518 5.36479 1.8222 3.93647 1.58372 6.62992 1 -7.32799 0.0385654 4
82 1 -0.0315383 7.11518 3.56725 6.69729 -1.55631 -1.32484 1 -7.3766 0.0305181 4
83 1 5.34857 5.34857 0 0 0 0 1 -3.32426 0 2
84 1 4.45714 4.45714 0.891429 0 0 0 1 -7.04701 0 4
85 1 4.45551 6.28862 2.67159 5.08937 -0.699433 -0.188876 1 -7.3455 0.0164486 4
86 1 6.24115 4.4117 2.68236 -2.16971 -5.39034 1.69885 1 -7.31393 0.0228116 4
87 1 6.24 6.24 0.891429 0 0 0 1 -6.97611 0 4
88 1 7.1402 5.30125 1.83487 -2.34944 -2.74513 6.24961 1 -7.30283 0.0324366 4
89 1 8.02286 4.45714 0.891429 0 0 0 1 -7.02989 0 4
90 1 8.02181 6.23022 2.71536 -9.00971 2.91418 3.08057 1 -7.29776 0.0617181 4
91 1 5.36468 7.13545 1.77641 -4.99328 -2.2943 -0.750284 1 -7.38187 0.0191456 4
92 1 4.45714 8.02286 0.891429 0 0 0 1 -7.00462 0 4
93 1 6.24927 8.02049 2.67509 5.43911 4.32462 5.16287 1 -7.41003 0.0466455 4
94 1 7.13143 7.13143 0 0 0 0 1 -3.34948 0 2
95 1 8.02286 8.02286 0.891429 0 0 0 1 -7.02331 0 4
96 1 5.32735 5.33114 3.5809 -4.50926 -4.02549 7.51053 1 -7.27062 0.057852 4
97 1 7.10601 7.1685 3.55918 3.69521 -5.81026 -2.32667 1 -7.3135 0.032881 4
98 1 8.91429 5.34857 0 0 0 0 1 -3.36119 0 2
99 1 9.81255 4.4544 2.6943 -0.278661 2.82165 0.401181 1 -7.34357 0.00510408 4
100 1 9.80572 6.24 0.891429 0 0 0 1 -6.99706 0 4
101 1 10.6717 5.36533 1.80764 5.58101 -1.13327 2.58469 1 -7.3478 0.0243447 4
102 1 12.48 5.34857 0 0 0 0 1 -3.33692 0 2
103 1 11.5886 4.45714 0.891429 0 0 0 1 -6.98682 0 4
104 1 11.5552 6.23604 2.69926 3.56096 7.23691 -6.15711 1 -7.31837 0.064087 4
105 1 8.92307 7.16697 1.8193 2.75619 1.64142 -6.56712 1 -7.29534 0.0332487 4
106 1 9.8168 8.06113 2.73209 -3.73343 -5.97977 6.09441 1 -7.32304 0.0540503 4
107 1 10.6971 7.13143 0 0 0 0 1 -3.36239 0 2
108 1 12.457 7.16274 1.7758 -1.65051 -1.44607 0.716309 1 -7.27205 0.00331652 4
109 1 11.5886 8.02286 0.891429 0 0 0 1 -7.02333 0 4
110 1 8.94736 5.37977 3.61587 -3.20297 9.39155 -5.01007 1 -7.29774 0.0769077 4
111 1 12.4886 5.32159 3.59087 -2.77725 11.0568 -3.93197 1 -7.39239 0.090517 4
112 1 10.7126 7.15778 3.58398 -1.89221 -3.82625 4.02252 1 -7.37851 0.0214123 4
113 1 13.3761 4.496 2.66945 2.90726 -9.03251 -3.98429 1 -7.35064 0.065923 4
114 1 13.3714 6.24 0.891429 0 0 0 1 -6.94395 0 4
115 1 14.2981 5.33572 1.82285 -2.04369 -0.113323 10.1124 1 -7.35189 0.0662579 4
116 1 16.0457 5.34857 0 0 0 0 1 -3.34942 0 2
117 1 15.1543 4.45714 0.891429 0 0 0 1 -7.03906 0 4
118 1 15.1437 6.24175 2.66663 10.083 1.83902 -2.19211 1 -7.30404 0.0683764 4
119 1 16.9192 4.46988 2.68174 0.422479 2.49438 -8.93439 1 -7.32526 0.0536679 4
120 1 16.9371 6.24 0.891429 0 0 0 1 -6.99878 0 4
121 1 13.364 8.06995 2.69319 -3.11817 6.21212 -1.86473 1 -7.38911 0.0322358 4
122 1 14.2629 7.13143 0 0 0 0 1 -3.32883 0 2
123 1 16.0771 7.14851 1.75193 2.7212 -4.50528 -4.58589 1 -7.3123 0.0303326 4
124 1 15.1543 8.02286 0.891429 0 0 0 1 -7.02279 0 4
125 1 16.9524 8.02542 2.64166 -5.45065 7.89173 10.104 1 -7.35332 0.1208 4
126 1 16.0851 5.3649 3.56826 -6.26592 -9.44196 8.10088 1 -7.34193 0.120773 4
127 1 14.2381 7.17183 3.56131 -7.10985 4.22616 -2.76705 1 -7.33836 0.047346 4
129 1 17.8311 5.34495 1.82577 -2.1736 -3.14235 3.73041 1 -7.30501 0.0177484 4
130 1 19.6114 5.34857 0 0 0 0 1 -3.34063 0 2
131 1 18.72 4.45714 0.891429 0 0 0 1 -7.01571 0 4
132 1 18.7166 6.2182 2.70632 -6.03979 0.839965 -6.14442 1 -7.36005 0.0466437 4
133 1 20.5122 4.43659 2.69454 -1.51374 -2.68006 0.0669824 1 -7.32135 0.00589974 4
134 1 20.5029 6.24 0.891429 0 0 0 1 -6.95355 0 4
135 1 17.8286 7.13143 0 0 0 0 1 -3.31197 0 2
136 1 19.5607 7.11711 1.7808 -1.79438 -4.98645 5.44984 1 -7.34184 0.0359671 4
137 1 18.72 8.02286 0.891429 0 0 0 1 -7.05283 0 4
138 1 20.4982 7.96738 2.69271 1.90473 2.01575 -4.05727 1 -7.29588 0.0150333 4
139 1 19.5757 5.32112 3.55125 -6.42643 0.872649 5.52671 1 -7.35676 0.0451913 4
140 1 17.8091 7.07579 3.56622 -1.22969 -3.22408 0.605337 1 -7.28248 0.00763921 4
141 1 1.78286 8.91429 0 0 0 0 1 -3.32529 0 2
142 1 0.902579 9.80017 2.68992 -4.39488 2.18362 -10.6041 1 -7.31333 0.0849797 4
143 1 2.67429 9.80572 0.891429 0 0 0 1 -7.05447 0 4
144 1 3.54667 8.92217 1.76241 3.34891 -4.36435 3.02049 1 -7.34607 0.024515 4
145 1 0 10.6971 0 0 0 0 1 -3.33642 0 2
146 1 1.77249 10.6743 1.76848 2.49617 0.110039 10.2417 1 -7.37545 0.069173 4
147 1 1.78286 12.48 0 0 0 0 1 -3.32974 0 2
148 1 0.891429 11.5886 0.891429 0 0 0 1 -6.99208 0 4
149 1 2.64536 11.6061 2.64173 -4.62067 2.53843 4.93446 1 -7.27454 0.0324552 4
150 1 3.56572 10.6971 0 0 0 0 1 -3.33142 0 2
151 1 3.55242 12.5286 1.76734 9.57547 2.49684 1.29384 1 -7.3917 0.0619923 4
152 1 1.79715 8.88891 3.52034 -0.875877 -3.05454 0.594673 1 -7.35848 0.00650497 4
153 1 1.7447 12.4882 3.56203 -6.12426 -1.85861 -0.372877 1 -7.33217 0.0255817 4
154 1 3.54364 10.7175 3.56867 -0.0745808 -0.938148 1.7573 1 -7.36118 0.00247339 4
205 1 0.021523 8.88733 1.77539 7.79864 -5.71945 -1.6322 1 -7.28773 0.0598743 4
204 1 0.0274687 12.5029 1.75508 12.8013 -1.76385 -1.01066 1 -7.36326 0.104571 4
155 1 5.34857 8.91429 0 0 0 0 1 -3.31423 0 2
156 1 4.42023 9.78537 2.66823 2.26914 6.35993 0.38514 1 -7.34622 0.0284735 4
157 1 6.24 9.80572 0.891429 0 0 0 1 -7.03337 0 4
158 1 7.12616 8.91335 1.76944 18.2756 4.88348 -1.19088 1 -7.36294 0.223615 4
159 1 7.99362 9.80987 2.6801 0.954682 7.25845 7.93885 1 -7.38501 0.0725886 4
160 1 5.32257 10.677 1.7706 -8.91956 4.55701 -1.17955 1 -7.35127 0.0633108 4
161 1 5.34857 12.48 0 0 0 0 1 -3.33447 0 2
162 1 4.45714 11.5886 0.891429 0 0 0 1 -6.99137 0 4
163 1 6.20261 11.5911 2.67001 -1.71506 -3.03449 -3.7163 1 -7.32133 0.0161584 4
164 1 7.13143 10.6971 0 0 0 0 1 -3.34065 0 2
165 1 7.11791 12.5002 1.75488 0.466813 -3.54006 -5.56068 1 -7.32071 0.027182 4
166 1 8.02286 11.5886 0.891429 0 0 0 1 -7.03563 0 4
167 1 5.31441 8.91062 3.51825 2.83582 -8.06117 -4.36254 1 -7.31759 0.0572982 4
168 1 5.33698 12.4896 3.54038 3.45089 1.09575 -0.215266 1 -7.34489 0.00818843 4
169 1 7.1166 10.7122 3.52125 3.27109 -4.7732 -3.24513 1 -7.34355 0.0273957 4
170 1 8.91429 8.91429 0 0 0 0 1 -3.34039 0 2
171 1 9.80572 9.80572 0.891429 0 0 0 1 -6.88906 0 4
172 1 10.7786 8.92448 1.82068 -6.67713 -4.41259 0.156722 1 -7.27439 0.0398848 4
173 1 12.48 8.91429 0 0 0 0 1 -3.33176 0 2
174 1 11.6306 9.83913 2.68406 -4.41796 0.496291 -1.68331 1 -7.37999 0.0140657 4
175 1 8.86916 10.7388 1.78173 -4.07851 -1.94089 0.444696 1 -7.29821 0.0128214 4
176 1 8.91429 12.48 0 0 0 0 1 -3.3339 0 2
177 1 9.82649 11.6121 2.67039 -4.19935 0.898626 -1.04305 1 -7.35899 0.012156 4
178 1 10.6971 10.6971 0 0 0 0 1 -3.32631 0 2
179 1 10.6998 12.5346 1.78161 -9.36426 2.56286 4.8564 1 -7.31458 0.0733482 4
180 1 12.4812 10.7216 1.78784 0.722751 -0.814408 -1.30511 1 -7.36504 0.00179816 4
181 1 12.48 12.48 0 0 0 0 1 -3.32749 0 2
182 1 11.5886 11.5886 0.891429 0 0 0 1 -7.01074 0 4
183 1 8.92073 8.94633 3.55276 1.01684 0.0812374 2.7045 1 -7.35914 0.00520029 4
184 1 12.4974 8.95701 3.57954 2.33662 -1.09092 -5.8942 1 -7.34609 0.0257631 4
185 1 8.9396 12.4856 3.55744 -0.884706 -2.94413 -0.0615403 1 -7.34829 0.00588468 4
186 1 10.7213 10.7116 3.56523 -1.81943 1.73007 3.99593 1 -7.36295 0.013862 4
187 1 12.4812 12.4748 3.53275 -5.70367 -3.66133 -2.53961 1 -7.26016 0.0326069 4
188 1 13.3714 9.80572 0.891429 0 0 0 1 -6.99999 0 4
189 1 14.2563 8.93206 1.76164 4.14667 4.85229 -0.0185096 1 -7.3487 0.0253576 4
190 1 16.0457 8.91429 0 0 0 0 1 -3.32078 0 2
191 1 15.1719 9.86854 2.63938 -6.37938 -0.551548 4.78746 1 -7.30501 0.0397858 4
192 1 16.9371 9.80572 0.891429 0 0 0 1 -7.01572 0 4
193 1 13.3916 11.622 2.67386 -3.76497 -0.9176 3.74116 1 -7.38092 0.0180586 4
194 1 14.2629 10.6971 0 0 0 0 1 -3.35083 0 2
195 1 14.2806 12.4989 1.80574 5.8226 -6.52339 -0.980942 1 -7.38425 0.0481879 4
196 1 16.0869 10.7554 1.77152 -5.5796 0.720846 -2.89725 1 -7.33802 0.0249254 4
197 1 16.0457 12.48 0 0 0 0 1 -3.30949 0 2
198 1 15.1543 11.5886 0.891429 0 0 0 1 -6.98871 0 4
199 1 16.9366 11.6092 2.66275 -3.24195 4.99107 -3.27915 1 -7.34578 0.0287398 4
200 1 16.0445 8.97145 3.51094 4.1123 3.48612 -3.36711 1 -7.26519 0.0251469 4
201 1 14.2416 10.7232 3.56355 -4.11952 5.07097 -7.08366 1 -7.35476 0.0578006 4
202 1 16.0158 12.4519 3.59948 2.77158 -2.87968 -3.50231 1 -7.33208 0.0175775 4
203 1 21.3704 10.6775 3.59027 -4.92662 -0.0348238 -3.76875 1 -7.38507 0.0239487 4
206 1 17.8277 8.88855 1.77322 2.46598 -3.58452 -1.34527 1 -7.34029 0.0129089 4
207 1 19.6114 8.91429 0 0 0 0 1 -3.34337 0 2
208 1 18.7254 9.76859 2.6981 -11.8055 -7.74258 -1.97908 1 -7.37981 0.126499 4
209 1 20.5029 9.80572 0.891429 0 0 0 1 -6.96779 0 4
210 1 17.8286 10.6971 0 0 0 0 1 -3.31304 0 2
211 1 17.8381 12.4534 1.79789 1.1126 10.2151 6.54468 1 -7.32374 0.0923798 4
212 1 19.5865 10.6874 1.80692 3.74051 -3.72396 -8.28213 1 -7.35399 0.0600349 4
213 1 19.6114 12.48 0 0 0 0 1 -3.35924 0 2
214 1 18.72 11.5886 0.891429 0 0 0 1 -7.03945 0 4
215 1 20.513 11.5397 2.66201 -2.11019 -2.45121 -0.212489 1 -7.29988 0.00653952 4
216 1 19.6153 8.84991 3.58263 -3.87917 -0.175837 -8.26311 1 -7.36786 0.0518841 4
217 1 17.8207 10.6768 3.58416 7.68226 4.6125 -8.42515 1 -7.32093 0.0941578 4
218 1 19.6277 12.4706 3.55707 3.12158 -0.244445 -0.10454 1 -7.25609 0.00610907 4
219 1 0.898485 13.3595 2.62931 -2.66268 4.20943 2.47193 1 -7.34602 0.0192452 4
220 1 2.67429 13.3714 0.891429 0 0 0 1 -7.01247 0 4
221 1 0 14.2629 0 0 0 0 1 -3.29987 0 2
222 1 1.78312 14.256 1.76239 4.47322 -4.05146 -1.2974 1 -7.41395 0.0237189 4
223 1 1.78286 16.0457 0 0 0 0 1 -3.31394 0 2
224 1 0.891429 15.1543 0.891429 0 0 0 1 -7.03573 0 4
225 1 0.889563 16.9226 2.6664 0.252565 -0.996163 -1.91387 1 -7.33564 0.00293724 4
226 1 2.66434 15.1381 2.64475 -2.6549 7.53198 1.53775 1 -7.33579 0.0411697 4
227 1 2.67429 16.9371 0.891429 0 0 0 1 -6.92171 0 4
228 1 3.56572 14.2629 0 0 0 0 1 -3.33371 0 2
229 1 3.58388 15.9821 1.8071 -4.6323 -0.600632 -4.92931 1 -7.27855 0.0287044 4
230 1 1.80072 16.0227 3.56851 0.319665 -3.40354 -4.06869 1 -7.35054 0.0175776 4
231 1 3.59412 14.3086 3.56931 -2.41024 -0.281974 -0.751423 1 -7.27662 0.00401675 4
233 1 0.00165081 16.0259 1.74474 5.61077 3.34795 0.886365 1 -7.36473 0.0270601 4
232 1 0.0402165 14.2657 3.56769 0.61851 1.92465 14.1966 1 -7.21977 0.12799 4
234 1 4.41845 13.3894 2.64392 -4.52152 1.69628 5.7909 1 -7.32463 0.0353887 4
235 1 6.24 13.3714 0.891429 0 0 0 1 -7.01904 0 4
236 1 8.00813 13.3717 2.6674 5.3566 0.817287 4.02725 1 -7.32274 0.0283701 4
237 1 5.36483 14.2767 1.78443 -5.14361 1.11041 -3.20149 1 -7.28443 0.0236144 4
238 1 5.34857 16.0457 0 0 0 0 1 -3.34891 0 2
239 1 4.45714 15.1543 0.891429 0 0 0 1 -7.00516 0 4
240 1 4.44129 16.9455 2.64619 -2.21974 5.52957 1.14292 1 -7.36147 0.0229113 4
241 1 6.29207 15.1682 2.65988 3.45721 -7.08946 -1.19114 1 -7.3505 0.039606 4
242 1 6.24 16.9371 0.891429 0 0 0 1 -7.01512 0 4
243 1 7.13143 14.2629 0 0 0 0 1 -3.3268 0 2
244 1 7.16505 16.0617 1.78069 -3.33229 1.47376 -4.0419 1 -7.41742 0.018432 4
245 1 8.02286 15.1543 0.891429 0 0 0 1 -7.02419 0 4
246 1 8.0158 16.9109 2.64808 -2.0512 -0.286245 6.07822 1 -7.34927 0.0256652 4
247 1 5.32998 16.0452 3.51452 9.24253 1.8619 -4.00579 1 -7.30845 0.0653158 4
248 1 7.10618 14.2692 3.57124 -0.451327 -0.0363837 -4.36107 1 -7.34906 0.0119655 4
249 1 9.80572 13.3714 0.891429 0 0 0 1 -6.99753 0 4
250 1 11.5668 13.4598 2.67202 -0.189119 0.576808 -4.83693 1 -7.28218 0.0147916 4
251 1 8.87509 14.2467 1.78175 5.84928 -8.26953 -0.614614 1 -7.37184 0.0640955 4
252 1 8.91429 16.0457 0 0 0 0 1 -3.33776 0 2
253 1 9.78046 15.1094 2.66418 1.22581 3.08466 3.54714 1 -7.26395 0.0146892 4
254 1 9.80572 16.9371 0.891429 0 0 0 1 -7.02941 0 4
255 1 10.6971 14.2629 0 0 0 0 1 -3.34148 0 2
256 1 10.6919 16.06 1.78142 -9.40072 -0.691429 -2.14305 1 -7.30869 0.0581622 4
257 1 12.4695 14.3012 1.77241 -0.125521 1.38086 5.47583 1 -7.35408 0.0198599 4
258 1 12.48 16.0457 0 0 0 0 1 -3.32208 0 2
259 1 11.5886 15.1543 0.891429 0 0 0 1 -6.99737 0 4
260 1 11.5972 16.9455 2.64236 9.2554 -1.0608 -3.27442 1 -7.33835 0.0606925 4
261 1 8.93282 16.0373 3.57354 -2.90188 2.28988 -0.88177 1 -7.25804 0.00898907 4
262 1 10.6687 14.2788 3.6062 -2.57332 4.51536 -15.9099 1 -7.29251 0.174364 4
263 1 12.4806 16.0257 3.5255 -5.72685 5.53203 -6.52179 1 -7.34213 0.0659361 4
264 1 13.3714 13.3714 0.891429 0 0 0 1 -7.00186 0 4
265 1 15.1518 13.3459 2.66642 -3.29725 6.65661 -1.42613 1 -7.3123 0.0356128 4
266 1 16.9371 13.3714 0.891429 0 0 0 1 -6.96821 0 4
267 1 13.3802 15.1409 2.63803 1.47 -0.149648 0.0398781 1 -7.34125 0.00135993 4
268 1 13.3714 16.9371 0.891429 0 0 0 1 -7.03247 0 4
269 1 14.2629 14.2629 0 0 0 0 1 -3.31881 0 2
270 1 14.2694 16.0294 1.744 -6.58993 -0.471916 4.91282 1 -7.36423 0.0421916 4
271 1 16.0429 14.2657 1.80375 0.890582 -5.53107 -5.68028 1 -7.37291 0.0396183 4
272 1 16.0457 16.0457 0 0 0 0 1 -3.34238 0 2
273 1 15.1543 15.1543 0.891429 0 0 0 1 -7.02952 0 4
274 1 15.1534 16.9333 2.68666 2.12615 6.40785 -3.24048 1 -7.23932 0.0349067 4
275 1 16.9195 15.139 2.71302 6.0114 -1.03196 0.538869 1 -7.33167 0.0233361 4
276 1 16.9371 16.9371 0.891429 0 0 0 1 -7.05372 0 4
277 1 14.2437 14.262 3.59216 -0.0691104 -1.60604 -6.76168 1 -7.30485 0.030066 4
278 1 16.0209 16.0544 3.64542 -2.37137 3.63624 -4.21421 1 -7.33407 0.0227841 4
279 1 18.7301 13.3977 2.68235 5.63002 2.92748 -3.0952 1 -7.34595 0.0310264 4
280 1 20.5029 13.3714 0.891429 0 0 0 1 -7.00639 0 4
281 1 17.8286 14.2629 0 0 0 0 1 -3.34021 0 2
282 1 17.7939 16.059 1.77846 6.4824 6.64754 3.22445 1 -7.34279 0.0601316 4
283 1 19.6079 14.3037 1.77673 -3.47966 3.61055 -5.39255 1 -7.39207 0.0337503 4
284 1 19.6114 16.0457 0 0 0 0 1 -3.31376 0 2
285 1 18.72 15.1543 0.891429 0 0 0 1 -7.00462 0 4
286 1 18.7038 16.9143 2.65308 -5.71753 0.325158 1.43439 1 -7.32846 0.0216936 4
287 1 20.5099 15.1712 2.6287 -0.669994 12.3867 7.09364 1 -7.35226 0.127099 4
288 1 20.5029 16.9371 0.891429 0 0 0 1 -7.03114 0 4
289 1 17.8123 14.2428 3.58354 6.9443 2.73282 2.10831 1 -7.37125 0.0374306 4
290 1 19.6418 16.0263 3.54149 0.677007 -6.82589 -6.21298 1 -7.31945 0.0533122 4
293 1 0 17.8286 0 0 0 0 1 -3.33347 0 2
294 1 1.75191 17.8243 1.77787 -1.0328 5.16645 -4.70753 1 -7.36049 0.0310713 4
295 1 1.78286 19.6114 0 0 0 0 1 -3.34093 0 2
296 1 0.891429 18.72 0.891429 0 0 0 1 -7.02218 0 4
297 1 0.848847 20.5245 2.66973 3.25224 0.162007 0.893675 1 -7.32323 0.00709688 4
298 1 2.63841 18.7201 2.62644 -2.53113 -7.34415 -17.6181 1 -7.36986 0.230759 4
299 1 2.67429 20.5029 0.891429 0 0 0 1 -7.03499 0 4
300 1 3.56572 17.8286 0 0 0 0 1 -3.33158 0 2
301 1 3.51312 19.6198 1.76958 0.232294 7.76294 9.44302 1 -7.34338 0.0930451 4
302 1 1.7681 19.5992 3.52589 -2.8865 2.00122 0.715612 1 -7.28878 0.00799749 4
303 1 3.57357 17.8367 3.50504 0.885004 -9.34335 -6.83551 1 -7.33479 0.0839066 4
305 1 -0.0142521 19.6105 1.78235 6.75325 2.86555 3.64246 1 -7.36315 0.0417556 4
27 1 5.34252 21.3898 1.75587 3.05529 -0.0222435 0.00162663 1 -7.33383 0.00581053 4
307 1 5.34311 17.8496 1.75498 2.24562 2.19043 6.96739 1 -7.38317 0.0363406 4
308 1 5.34857 19.6114 0 0 0 0 1 -3.32995 0 2
309 1 4.45714 18.72 0.891429 0 0 0 1 -7.00409 0 4
310 1 4.43502 20.5013 2.68199 -11.0559 -1.52446 6.90211 1 -7.34754 0.107179 4
311 1 6.23901 18.71 2.66943 -5.42131 7.38482 2.22763 1 -7.34417 0.0553265 4
312 1 6.24 20.5029 0.891429 0 0 0 1 -7.01693 0 4
313 1 7.13143 17.8286 0 0 0 0 1 -3.31856 0 2
314 1 7.14751 19.6127 1.79006 0.314679 0.640481 -3.40588 1 -7.34966 0.00753711 4
315 1 8.02286 18.72 0.891429 0 0 0 1 -7.00597 0 4
316 1 7.99351 20.4914 2.67287 0.234415 7.28984 5.73817 1 -7.36695 0.0536054 4
317 1 5.31722 19.6208 3.56419 -1.62015 -2.55572 8.11774 1 -7.29606 0.0467157 4
318 1 7.19187 17.8271 3.54759 -1.03766 3.22337 -10.1 1 -7.29284 0.0706305 4
320 1 8.89155 21.3873 1.78059 -4.60674 2.94517 3.52468 1 -7.35041 0.0263407 4
321 1 12.4683 21.3769 1.76235 3.83582 2.45634 -3.09159 1 -7.36604 0.0188627 4
322 1 8.91303 17.8206 1.78173 -9.21787 -2.19103 -3.9482 1 -7.3091 0.0655776 4
323 1 8.91429 19.6114 0 0 0 0 1 -3.32335 0 2
324 1 9.77129 18.7617 2.68263 0.626656 2.73039 0.580749 1 -7.3565 0.00509457 4
325 1 9.80572 20.5029 0.891429 0 0 0 1 -7.0316 0 4
326 1 10.6971 17.8286 0 0 0 0 1 -3.32595 0 2
327 1 10.6672 19.622 1.75762 -1.35799 -0.101198 -3.15566 1 -7.37568 0.00735245 4
328 1 12.496 17.8215 1.77561 -2.54215 4.19784 -6.13694 1 -7.43938 0.0384325 4
329 1 12.48 19.6114 0 0 0 0 1 -3.32462 0 2
330 1 11.5886 18.72 0.891429 0 0 0 1 -7.00701 0 4
331 1 11.5788 20.4886 2.65666 -8.23176 2.98225 5.91344 1 -7.32134 0.069478 4
332 1 8.94513 19.6042 3.57558 -3.81223 0.280731 0.767081 1 -7.33477 0.0094611 4
333 1 10.647 17.8377 3.53066 -2.67056 -4.21162 -1.55869 1 -7.3378 0.0169917 4
334 1 12.4715 19.6197 3.577 3.26041 -2.69244 -4.36873 1 -7.34638 0.0230082 4
335 1 16.0508 21.3831 1.76161 0.0290455 0.103287 2.72137 1 -7.36946 0.00461675 4
337 1 13.3536 18.6975 2.64837 -1.8817 -1.79627 5.52208 1 -7.32191 0.0231921 4
338 1 13.3714 20.5029 0.891429 0 0 0 1 -7.01535 0 4
339 1 14.2629 17.8286 0 0 0 0 1 -3.33593 0 2
340 1 14.2768 19.6286 1.76578 -3.73433 -2.25892 -3.88411 1 -7.32845 0.021246 4
341 1 16.0888 17.8329 1.76297 -4.58991 -1.99561 0.829426 1 -7.32374 0.0160198 4
342 1 16.0457 19.6114 0 0 0 0 1 -3.31001 0 2
343 1 15.1543 18.72 0.891429 0 0 0 1 -7.00056 0 4
344 1 15.171 20.5073 2.67608 -4.59587 5.20967 3.00422 1 -7.34979 0.0356575 4
345 1 16.9483 18.7136 2.66502 1.66842 2.11738 -2.75187 1 -7.38837 0.00923664 4
346 1 16.9371 20.5029 0.891429 0 0 0 1 -7.01888 0 4
347 1 14.2461 17.8831 3.58782 -3.03894 5.92949 2.08341 1 -7.31059 0.0303337 4
348 1 16.0386 19.6097 3.56102 -1.31806 0.788086 0.945273 1 -7.36103 0.00202408 4
304 1 21.3896 17.8361 3.57001 2.52482 5.48173 -1.51659 1 -7.27791 0.0241029 4
351 1 17.8286 17.8286 0 0 0 0 1 -3.31783 0 2
352 1 17.8269 19.6205 1.76719 -7.9911 -1.34223 -6.91476 1 -7.38729 0.0706286 4
353 1 19.6105 17.7805 1.77954 -1.40185 5.43227 2.60775 1 -7.3752 0.0238234 4
354 1 19.6114 19.6114 0 0 0 0 1 -3.3365 0 2
355 1 18.72 18.72 0.891429 0 0 0 1 -6.97479 0 4
356 1 18.7024 20.5165 2.63754 3.48006 -3.72113 -5.0564 1 -7.30502 0.0320704 4
357 1 20.469 18.7175 2.62593 -0.523317 -4.73572 1.4045 1 -7.29804 0.0153575 4
358 1 20.5029 20.5029 0.891429 0 0 0 1 -7.00185 0 4
359 1 17.8211 17.838 3.55701 1.26915 4.07533 -8.01015 1 -7.34608 0.0512764 4
360 1 19.6154 19.6365 3.55579 -1.34572 -2.29977 -10.5387 1 -7.31822 0.0735487 4
361 1 0.853618 0.921824 4.46264 -1.1559 -7.36143 2.82346 1 -7.35689 0.0395233 4
362 1 0.866884 2.65456 6.24515 2.40644 5.19852 0.557476 1 -7.3175 0.0206187 4
363 1 2.64403 0.879746 6.25089 -0.246193 4.18859 3.18395 1 -7.34638 0.0172676 4
364 1 2.62712 2.61125 4.46679 -4.01096 -8.35615 -4.27044 1 -7.29484 0.0648255 4
365 1 3.50904 1.79003 5.34707 -0.12976 -8.07487 0.808537 1 -7.31593 0.0410018 4
366 1 1.78731 3.57667 5.35379 -0.072749 -7.39717 -7.03534 1 -7.29863 0.0648689 4
367 1 1.73354 1.74809 7.16873 -2.61299 -0.535102 -4.13403 1 -7.31582 0.0150654 4
368 1 0.863998 0.883944 8.0837 5.09968 -0.130881 -1.3557 1 -7.37454 0.0173419 4
369 1 2.5962 2.69947 8.04822 5.19601 -3.87201 -1.79879 1 -7.25578 0.0281502 4
370 1 3.56455 3.6161 7.13428 1.49445 -5.55645 4.02878 1 -7.25647 0.0307096 4
411 1 -0.0166 1.78111 5.34727 -0.362223 0.855461 1.58049 1 -7.38403 0.00209195 4
371 1 0.0258073 3.54944 7.14328 -10.2203 4.0375 -0.908058 1 -7.34542 0.0756751 4
651 1 3.51995 0.0465864 7.13839 -7.2395 2.04249 0.484923 1 -7.362 0.0353645 4
710 1 0.00282608 0.0181298 7.16975 1.82234 0.0175184 -3.23682 1 -7.33718 0.00858837 4
652 1 1.78769 0.0198453 5.33555 4.83886 -4.30597 3.44287 1 -7.32092 0.0334924 4
372 1 4.43893 0.863288 4.48748 -3.2135 3.02045 7.14726 1 -7.28547 0.0439016 4
373 1 4.47989 2.68191 6.23791 -3.73394 7.1178 4.46517 1 -7.31335 0.0526219 4
374 1 6.19222 0.883394 6.30811 -0.106 -0.98518 -3.24803 1 -7.31363 0.0071775 4
375 1 6.2112 2.69649 4.48614 -1.07839 8.68333 -2.02248 1 -7.27715 0.0502009 4
376 1 7.12761 1.7485 5.35183 6.21974 5.11616 3.73586 1 -7.29353 0.0490577 4
377 1 7.98187 0.854644 4.47476 -1.55506 0.000818545 8.3252 1 -7.30091 0.0446448 4
378 1 8.03403 2.6174 6.22632 1.54591 -0.0944372 -1.35806 1 -7.32067 0.002641 4
379 1 5.3801 3.58136 5.39558 0.839068 -0.6554 -9.71227 1 -7.39766 0.0594179 4
380 1 5.33749 1.8129 7.19114 -8.42093 0.532863 -2.62898 1 -7.35609 0.0486161 4
381 1 4.42737 0.928356 8.07764 1.30319 4.72723 -7.98264 1 -7.3649 0.0546288 4
382 1 6.20749 2.6481 8.09961 3.43851 -6.60037 -1.39699 1 -7.38501 0.0356898 4
383 1 8.04622 0.842987 8.04273 5.00963 2.95162 -2.7013 1 -7.36992 0.0255851 4
384 1 7.13914 3.51791 7.18274 2.24143 -5.54393 -2.55251 1 -7.27461 0.0263128 4
665 1 7.13834 -0.015526 7.16859 -4.46886 -3.42269 0.38779 1 -7.30662 0.0198155 4
386 1 9.79642 0.861953 6.24356 -4.61293 -4.05397 8.84243 1 -7.36369 0.0721407 4
387 1 9.81149 2.6568 4.46615 -1.29727 -3.05152 -2.01474 1 -7.3753 0.00936993 4
388 1 10.6987 1.78037 5.37027 0.789079 -1.38171 -5.08804 1 -7.34881 0.0176893 4
389 1 11.5918 0.90146 4.46964 2.69022 2.57274 7.76496 1 -7.34218 0.0461534 4
390 1 11.6 2.66583 6.25387 -0.12368 2.47473 -0.368811 1 -7.33401 0.00390609 4
391 1 8.91307 3.55526 5.38704 -1.13404 -5.49492 -0.146218 1 -7.33337 0.0196074 4
392 1 12.4659 3.55594 5.34466 -2.58996 2.93546 -2.78984 1 -7.27984 0.0143831 4
393 1 8.9428 1.75155 7.17322 0.80114 6.43143 5.36219 1 -7.33088 0.0440417 4
394 1 9.81379 2.62739 8.0477 7.51752 -1.3454 1.37203 1 -7.40562 0.0374736 4
395 1 12.5133 1.77891 7.17239 -4.73634 -3.75798 3.0486 1 -7.33211 0.0285378 4
396 1 11.5963 0.877314 8.0594 -4.85097 4.66091 1.07991 1 -7.35069 0.0288944 4
397 1 10.709 3.53565 7.15003 7.16853 0.000869687 3.58329 1 -7.33236 0.039977 4
398 1 13.3786 0.910359 6.27142 -3.91135 -3.15073 -9.70251 1 -7.35866 0.0742955 4
399 1 13.4016 2.6052 4.45841 -8.34949 -8.52308 1.6186 1 -7.29962 0.0902373 4
400 1 14.2561 1.78377 5.34026 1.71273 -0.902378 1.28144 1 -7.37469 0.00335477 4
401 1 15.1638 0.862445 4.47222 3.43675 1.12774 4.36202 1 -7.31473 0.0199863 4
402 1 15.1832 2.64295 6.21157 -9.88196 0.311809 -3.00533 1 -7.31701 0.0664642 4
403 1 16.899 0.902128 6.23367 -1.19729 -3.53612 -7.15367 1 -7.30319 0.0405278 4
404 1 16.9503 2.65599 4.44117 -4.43984 8.20562 -8.63339 1 -7.39078 0.100572 4
405 1 16.057 3.54835 5.33308 -2.89986 -3.05169 2.7488 1 -7.3396 0.0157336 4
406 1 13.4526 2.68668 8.04657 -0.975124 6.27857 1.53804 1 -7.34599 0.0266006 4
407 1 16.0447 1.79166 7.12495 -8.03232 9.87267 -1.2644 1 -7.39625 0.101821 4
408 1 15.1922 0.924489 8.05172 3.33767 -1.79065 4.18447 1 -7.31365 0.0198281 4
409 1 16.9784 2.62722 8.05357 -6.61098 -5.27839 -0.10823 1 -7.27645 0.0445522 4
410 1 14.2542 3.56993 7.13518 -7.41131 0.584484 -0.27792 1 -7.28678 0.034449 4
412 1 17.7927 1.78289 5.34283 -2.36019 -3.22642 0.0445998 1 -7.29879 0.0099478 4
413 1 18.7435 0.848368 4.4696 5.91762 1.91772 5.89243 1 -7.31302 0.0456964 4
414 1 18.7398 2.65746 6.27469 -0.740932 -2.16047 -1.36813 1 -7.26995 0.00441202 4
415 1 20.5356 0.883596 6.20967 0.98303 -6.52963 5.12718 1 -7.29003 0.0435016 4
416 1 20.4818 2.64841 4.43743 -5.92564 -5.53322 -4.44505 1 -7.33948 0.0532101 4
417 1 19.6119 3.5771 5.3824 5.25278 -2.31775 3.65729 1 -7.27791 0.0288429 4
418 1 19.633 1.79296 7.16 -6.59663 4.63635 -0.715578 1 -7.2821 0.0407834 4
419 1 18.706 0.888495 8.03174 5.92662 -1.44839 -2.8689 1 -7.32997 0.0282913 4
420 1 20.5219 2.70713 8.06466 -2.8396 1.695 -12.3538 1 -7.32782 0.1018 4
421 1 17.8397 3.59625 7.15749 3.09161 -4.04252 5.9078 1 -7.29331 0.0378448 4
423 1 0.888879 4.41101 4.46888 0.721781 1.9493 -2.66315 1 -7.31415 0.00710381 4
424 1 0.834557 6.23766 6.24157 0.340587 -7.2038 0.426866 1 -7.32634 0.0324863 4
425 1 2.68378 4.48319 6.26097 -0.693696 2.60084 5.19506 1 -7.39768 0.0213083 4
426 1 2.6818 6.20281 4.469 1.20185 13.7341 -2.11664 1 -7.41875 0.121094 4
427 1 3.55945 5.35933 5.3549 4.09521 0.17754 -3.68802 1 -7.34337 0.0189241 4
428 1 1.74737 7.10224 5.33225 -0.421405 -2.72981 -4.0024 1 -7.34487 0.0147195 4
429 1 0.895053 8.01033 4.4044 1.44098 -1.58664 5.53111 1 -7.33478 0.0219014 4
430 1 2.60123 8.02307 6.23687 -2.48337 11.6038 4.73628 1 -7.23865 0.101609 4
431 1 1.76161 5.33274 7.1337 -9.29494 -3.32974 -8.08396 1 -7.32124 0.101352 4
432 1 0.894393 4.47525 8.0425 1.50028 2.42792 -4.71885 1 -7.33284 0.0189299 4
433 1 2.69745 6.21147 8.07268 7.71038 -5.14222 -7.58671 1 -7.27782 0.0892874 4
434 1 0.909379 8.02592 8.01628 6.27418 2.91673 2.70479 1 -7.30625 0.0343507 4