ITEM: TIMESTEP
49126625
ITEM: NUMBER OF ATOMS
3060
ITEM: BOX BOUNDS pp pp mm
0.0000000000000000e+00 2.1394294200000001e+01
0.0000000000000000e+00 2.1394294200000001e+01
-5.3491084073550004e-03 5.3485735499999997e+01
ITEM: ATOMS id type x y z vx vy vz c_clusts c_atom_pe c_atom_ke c_atom_coord
1 1 0 0 0 0 0 0 1 -3.3158 0 2
2 1 1.78286 1.78286 0 0 0 0 1 -3.32566 0 2
3 1 0.891429 0.891429 0.891429 0 0 0 1 -7.00459 0 4
4 1 0.893821 2.70724 2.64806 -2.39078 -2.34689 7.72484 1 -7.27954 0.0441281 4
5 1 2.68504 0.87897 2.62184 2.98809 -2.58792 3.04722 1 -7.36459 0.0155056 4
6 1 2.67429 2.67429 0.891429 0 0 0 1 -6.98533 0 4
7 1 3.56572 0 0 0 0 0 1 -3.33427 0 2
8 1 3.5659 1.763 1.76668 3.99756 -4.50892 1.26344 1 -7.38777 0.0235944 4
9 1 0 3.56572 0 0 0 0 1 -3.34908 0 2
10 1 1.76292 3.59674 1.80307 -5.69802 -0.436385 -0.95276 1 -7.3761 0.0208921 4
11 1 3.56572 3.56572 0 0 0 0 1 -3.34605 0 2
12 1 1.82246 1.73497 3.56979 0.313016 2.92431 -1.7757 1 -7.23794 0.00734631 4
13 1 3.52604 3.59815 3.56324 -4.48433 1.68837 2.64178 1 -7.31945 0.0186347 4
292 1 1.79587 0.00968006 1.77892 5.33631 -0.933388 -3.27153 1 -7.39149 0.0249284 4
55 1 -0.0173818 1.78698 1.78666 2.00708 1.05118 -0.721565 1 -7.38138 0.0035192 4
350 1 -0.0599566 -0.0316671 3.53271 -2.36003 2.57927 -2.57184 1 -7.26219 0.0117245 4
14 1 5.34857 1.78286 0 0 0 0 1 -3.3453 0 2
15 1 4.45714 0.891429 0.891429 0 0 0 1 -7.03592 0 4
16 1 4.43923 2.65409 2.688 -1.2072 1.76974 -3.80086 1 -7.24548 0.0118484 4
17 1 6.21163 0.857851 2.66596 -5.84389 3.57812 3.58847 1 -7.37427 0.0372405 4
18 1 6.24 2.67429 0.891429 0 0 0 1 -6.96774 0 4
19 1 7.13143 0 0 0 0 0 1 -3.33076 0 2
20 1 7.15501 1.7666 1.74996 -4.38882 -1.50078 2.95033 1 -7.33889 0.0188088 4
21 1 8.02286 0.891429 0.891429 0 0 0 1 -7.00999 0 4
22 1 8.02028 2.63353 2.63311 -1.00833 7.6612 -4.86568 1 -7.31296 0.0519013 4
23 1 5.36563 3.61524 1.81507 -2.00885 -0.732598 -4.43935 1 -7.25622 0.0151125 4
24 1 7.13143 3.56572 0 0 0 0 1 -3.32668 0 2
25 1 5.39673 1.74219 3.5054 -6.107 3.64832 1.12883 1 -7.31222 0.0322914 4
26 1 7.17721 3.5638 3.56201 -0.153198 0.0758579 2.91807 1 -7.25167 0.00531822 4
28 1 8.91429 1.78286 0 0 0 0 1 -3.32382 0 2
29 1 9.82776 0.897651 2.61984 -8.38572 -1.95355 -8.7218 1 -7.37282 0.0934924 4
30 1 9.80572 2.67429 0.891429 0 0 0 1 -6.99475 0 4
31 1 10.6971 0 0 0 0 0 1 -3.33964 0 2
32 1 10.6811 1.76829 1.76142 -3.94332 0.422914 1.8567 1 -7.38746 0.0119356 4
33 1 12.48 1.78286 0 0 0 0 1 -3.32202 0 2
34 1 11.5886 0.891429 0.891429 0 0 0 1 -6.96988 0 4
35 1 11.6074 2.68204 2.60699 -2.71892 6.77268 -0.724776 1 -7.3639 0.0334785 4
36 1 8.92234 3.59537 1.77332 2.03178 0.347508 -8.21337 1 -7.31753 0.0446331 4
37 1 10.6971 3.56572 0 0 0 0 1 -3.33105 0 2
38 1 12.4895 3.56039 1.77609 -1.39587 -4.64007 -8.11635 1 -7.3911 0.0556162 4
39 1 8.88983 1.73299 3.51693 -6.41866 -3.65535 7.41498 1 -7.30404 0.0681822 4
40 1 12.4794 1.80887 3.53798 3.44693 -0.664356 -8.46441 1 -7.36067 0.0522645 4
41 1 10.6922 3.53686 3.50674 3.85349 2.94696 -0.713162 1 -7.27369 0.0149647 4
42 1 13.3925 0.915025 2.69985 -4.60097 7.87237 -2.84745 1 -7.29428 0.0567971 4
43 1 13.3714 2.67429 0.891429 0 0 0 1 -7.04204 0 4
44 1 14.2629 0 0 0 0 0 1 -3.30575 0 2
45 1 14.2363 1.77164 1.76865 1.07779 0.00713063 -3.97042 1 -7.28479 0.0105352 4
46 1 16.0457 1.78286 0 0 0 0 1 -3.32064 0 2
47 1 15.1543 0.891429 0.891429 0 0 0 1 -7.02442 0 4
48 1 15.1767 2.64291 2.72388 3.90644 3.99611 -4.70352 1 -7.25184 0.0332079 4
49 1 16.9341 0.864252 2.68416 4.85578 1.07019 -3.68918 1 -7.37961 0.02386 4
50 1 16.9371 2.67429 0.891429 0 0 0 1 -7.01581 0 4
51 1 14.2629 3.56572 0 0 0 0 1 -3.3322 0 2
52 1 16.0342 3.56459 1.76982 -6.86268 5.46776 -1.92617 1 -7.32361 0.0502317 4
53 1 16.0611 1.74923 3.54923 2.0145 0.514045 0.825058 1 -7.34617 0.00311409 4
54 1 14.2762 3.55342 3.5349 -1.9906 3.34217 -4.86297 1 -7.31083 0.0241383 4
336 1 14.2893 -0.0190712 3.51077 0.351521 -1.02496 -1.1871 1 -7.35247 0.00160793 4
56 1 21.4299 3.55097 3.57139 -1.68979 -2.53269 3.2569 1 -7.26768 0.0123722 4
57 1 17.8286 0 0 0 0 0 1 -3.3223 0 2
58 1 17.8042 1.75979 1.76632 2.09183 -3.77864 0.406037 1 -7.35673 0.0117133 4
59 1 19.6114 1.78286 0 0 0 0 1 -3.32435 0 2
60 1 18.72 0.891429 0.891429 0 0 0 1 -7.03776 0 4
61 1 18.6851 2.67239 2.66559 2.15649 -3.40725 3.79489 1 -7.30658 0.0190842 4
62 1 20.4922 0.903217 2.64632 -3.66541 -4.79061 -1.1852 1 -7.4352 0.0235214 4
63 1 20.5029 2.67429 0.891429 0 0 0 1 -6.97579 0 4
64 1 17.8286 3.56572 0 0 0 0 1 -3.33769 0 2
65 1 19.5656 3.58343 1.79403 -4.9689 0.36778 -4.28359 1 -7.34077 0.0268729 4
66 1 19.6225 1.77148 3.54401 0.690619 1.40263 0.698996 1 -7.36443 0.00182552 4
67 1 17.8163 3.57353 3.55536 -6.23747 2.61186 -3.42361 1 -7.38327 0.0357577 4
68 1 19.6238 0.0193087 1.76133 -2.20862 2.27498 -2.1201 1 -7.37941 0.00905528 4
349 1 17.8483 -0.0361664 3.54805 4.22335 -1.84205 -1.94615 1 -7.33635 0.0155714 4
69 1 1.78286 5.34857 0 0 0 0 1 -3.33537 0 2
70 1 0.891429 4.45714 0.891429 0 0 0 1 -7.02574 0 4
71 1 0.874111 6.25 2.68201 4.35332 0.47141 0.950975 1 -7.32115 0.012497 4
72 1 2.64943 4.44384 2.6988 -2.35781 -6.82641 7.41636 1 -7.37808 0.0667001 4
73 1 2.67429 6.24 0.891429 0 0 0 1 -7.03768 0 4
74 1 3.56798 5.31716 1.79036 -3.89036 -1.20233 -3.49863 1 -7.31971 0.0179389 4
75 1 0 7.13143 0 0 0 0 1 -3.34354 0 2
76 1 1.79928 7.11644 1.75737 -6.4546 4.19801 -3.55276 1 -7.3762 0.0447569 4
77 1 0.891429 8.02286 0.891429 0 0 0 1 -7.02707 0 4
78 1 2.63459 7.99227 2.65595 4.77623 -9.32731 6.87315 1 -7.28629 0.0977529 4
79 1 3.56572 7.13143 0 0 0 0 1 -3.33285 0 2
80 1 1.77671 5.35508 3.62979 -3.07303 0.564243 -10.1166 1 -7.27156 0.0697781 4
81 1 3.57218 7.11281 3.56015 -3.08282 8.67881 1.25569 1 -7.28892 0.0537791 4
83 1 5.34857 5.34857 0 0 0 0 1 -3.34519 0 2
84 1 4.45714 4.45714 0.891429 0 0 0 1 -6.98777 0 4
85 1 4.5084 6.20558 2.6715 0.602329 1.10509 -4.72287 1 -7.31242 0.0148695 4
86 1 6.26427 4.52303 2.66725 10.7948 4.36269 -0.0878507 1 -7.31026 0.0843812 4
87 1 6.24 6.24 0.891429 0 0 0 1 -7.02329 0 4
88 1 7.13857 5.37514 1.77201 3.64534 -3.21398 -2.09424 1 -7.38985 0.0174304 4
89 1 8.02286 4.45714 0.891429 0 0 0 1 -7.02451 0 4
90 1 8.00937 6.23325 2.65122 -3.44401 -1.78944 1.0299 1 -7.39553 0.010036 4
91 1 5.36468 7.13545 1.77641 -4.99328 -2.2943 -0.750284 1 -7.3595 0.0191456 4
92 1 4.45714 8.02286 0.891429 0 0 0 1 -7.0023 0 4
93 1 6.22814 8.06362 2.68215 -4.68166 2.67839 -2.58279 1 -7.31911 0.0222596 4
94 1 7.13143 7.13143 0 0 0 0 1 -3.33718 0 2
95 1 8.02286 8.02286 0.891429 0 0 0 1 -7.04393 0 4
96 1 5.35994 5.3541 3.57992 0.887444 10.7799 0.581282 1 -7.37674 0.0730305 4
97 1 7.15139 7.13512 3.51205 2.56155 0.631331 6.59415 1 -7.27813 0.031397 4
98 1 8.91429 5.34857 0 0 0 0 1 -3.32994 0 2
99 1 9.79995 4.49178 2.65884 -6.01553 4.98192 -3.01205 1 -7.38229 0.0436188 4
100 1 9.80572 6.24 0.891429 0 0 0 1 -7.01068 0 4
101 1 10.6924 5.39248 1.78403 1.522 -2.90607 0.876151 1 -7.3656 0.00717619 4
102 1 12.48 5.34857 0 0 0 0 1 -3.32247 0 2
103 1 11.5886 4.45714 0.891429 0 0 0 1 -6.97864 0 4
104 1 11.6283 6.2477 2.62397 3.36365 -0.0756063 -1.7672 1 -7.33195 0.00898962 4
105 1 8.90988 7.15872 1.77579 -0.387527 1.90181 -2.97936 1 -7.34255 0.00786975 4
106 1 9.80739 8.05544 2.6798 10.4491 -3.31394 -2.9183 1 -7.31336 0.0800959 4
107 1 10.6971 7.13143 0 0 0 0 1 -3.33567 0 2
108 1 12.4923 7.1435 1.78075 8.05381 -6.09187 7.69058 1 -7.38103 0.100285 4
109 1 11.5886 8.02286 0.891429 0 0 0 1 -7.01919 0 4
110 1 8.8983 5.34329 3.52907 -2.46945 -1.42604 5.35176 1 -7.39218 0.0228886 4
111 1 12.4781 5.34162 3.56975 4.00692 7.47649 -6.60258 1 -7.31747 0.0719197 4
112 1 10.7173 7.11623 3.58448 -3.91791 -1.80371 4.59647 1 -7.27298 0.0247296 4
113 1 13.3924 4.4342 2.66767 3.67088 -10.583 -1.97765 1 -7.38395 0.0805333 4
114 1 13.3714 6.24 0.891429 0 0 0 1 -6.99839 0 4
115 1 14.239 5.32985 1.81438 -5.06058 0.0342086 2.34056 1 -7.33969 0.0193505 4
116 1 16.0457 5.34857 0 0 0 0 1 -3.35373 0 2
117 1 15.1543 4.45714 0.891429 0 0 0 1 -6.99278 0 4
118 1 15.1306 6.22783 2.65407 10.053 4.93364 -0.341186 1 -7.28485 0.0781264 4
119 1 16.9169 4.48091 2.60248 5.5601 -1.71215 5.8318 1 -7.27273 0.0422354 4
120 1 16.9371 6.24 0.891429 0 0 0 1 -7.04298 0 4
121 1 13.3586 8.01103 2.69917 3.82831 2.31083 4.03437 1 -7.40497 0.0225767 4
122 1 14.2629 7.13143 0 0 0 0 1 -3.33651 0 2
123 1 16.0771 7.14851 1.75193 2.7212 -4.50528 -4.58589 1 -7.30684 0.0303326 4
124 1 15.1543 8.02286 0.891429 0 0 0 1 -6.99758 0 4
125 1 16.8401 8.04158 2.67697 -4.07128 -3.4615 -0.688699 1 -7.25895 0.01807 4
126 1 16.0255 5.3349 3.553 -7.32907 -2.55301 -0.210702 1 -7.26654 0.0375183 4
127 1 14.2324 7.11552 3.56663 1.35619 0.391897 1.91479 1 -7.3601 0.00352247 4
128 1 21.3916 5.33992 1.80424 1.2257 1.82344 -1.52693 1 -7.32891 0.00445583 4
82 1 21.3954 7.13844 3.59859 2.93909 -0.204734 8.47759 1 -7.3297 0.0501362 4
129 1 17.8038 5.36715 1.78594 4.52341 5.53374 5.96345 1 -7.38724 0.0539309 4
130 1 19.6114 5.34857 0 0 0 0 1 -3.32861 0 2
131 1 18.72 4.45714 0.891429 0 0 0 1 -7.01344 0 4
132 1 18.6653 6.24254 2.68376 -2.8784 -3.03386 -3.93169 1 -7.41525 0.0205075 4
133 1 20.4657 4.45415 2.69709 -3.73423 -6.62031 -4.79277 1 -7.25477 0.050257 4
134 1 20.5029 6.24 0.891429 0 0 0 1 -6.98093 0 4
135 1 17.8286 7.13143 0 0 0 0 1 -3.31355 0 2
136 1 19.5607 7.11711 1.7808 -1.79438 -4.98645 5.44984 1 -7.33242 0.0359671 4
137 1 18.72 8.02286 0.891429 0 0 0 1 -7.04629 0 4
138 1 20.496 8.00027 2.70379 -0.689081 -4.91047 2.59441 1 -7.3252 0.0194935 4
139 1 19.5574 5.39432 3.59882 -1.82948 3.26591 -4.74429 1 -7.3393 0.0227319 4
140 1 17.817 7.12908 3.56791 6.16877 1.21917 0.181512 1 -7.29536 0.0246313 4
141 1 1.78286 8.91429 0 0 0 0 1 -3.33344 0 2
142 1 0.900209 9.82073 2.66129 -5.32455 1.87603 -4.09768 1 -7.35756 0.0302881 4
143 1 2.67429 9.80572 0.891429 0 0 0 1 -7.05583 0 4
144 1 3.54667 8.92217 1.76241 3.34891 -4.36435 3.02049 1 -7.31654 0.024515 4
145 1 0 10.6971 0 0 0 0 1 -3.32654 0 2
146 1 1.80779 10.6858 1.77981 0.570779 -3.65377 7.49037 1 -7.36948 0.0434338 4
147 1 1.78286 12.48 0 0 0 0 1 -3.32084 0 2
148 1 0.891429 11.5886 0.891429 0 0 0 1 -6.96819 0 4
149 1 2.66371 11.6283 2.6725 -0.766806 -1.93395 -1.21341 1 -7.30084 0.00361039 4
150 1 3.56572 10.6971 0 0 0 0 1 -3.3319 0 2
151 1 3.58757 12.5014 1.78317 -5.65539 -0.349174 -10.3081 1 -7.36967 0.0861203 4
152 1 1.7708 8.94481 3.57578 6.0389 -1.85245 0.687928 1 -7.30857 0.0251293 4
153 1 1.78808 12.499 3.53641 0.374666 -3.34065 -4.06282 1 -7.38594 0.0173077 4
154 1 3.56983 10.7038 3.58918 4.37568 3.0661 -7.11548 1 -7.29391 0.0492822 4
205 1 0.021523 8.88733 1.77539 7.79864 -5.71945 -1.6322 1 -7.35117 0.0598743 4
204 1 0.0274687 12.5029 1.75508 12.8013 -1.76385 -1.01066 1 -7.326 0.104571 4
203 1 0.00378986 10.694 3.53912 -3.92048 1.31004 -6.72005 1 -7.34959 0.0387432 4
155 1 5.34857 8.91429 0 0 0 0 1 -3.32456 0 2
156 1 4.46919 9.78461 2.65769 6.14554 2.71089 1.30172 1 -7.32517 0.0291365 4
157 1 6.24 9.80572 0.891429 0 0 0 1 -7.00767 0 4
158 1 7.15495 8.93175 1.78541 -7.13209 -6.14899 -0.663353 1 -7.3383 0.0554686 4
159 1 8.00178 9.84538 2.7065 -7.14162 -4.59439 -0.727703 1 -7.35181 0.0452134 4
160 1 5.33628 10.6771 1.75132 -1.13578 -0.943409 9.07602 1 -7.36057 0.0526288 4
161 1 5.34857 12.48 0 0 0 0 1 -3.32978 0 2
162 1 4.45714 11.5886 0.891429 0 0 0 1 -7.05119 0 4
163 1 6.21307 11.5684 2.68682 15.4515 -5.14818 -6.43809 1 -7.34322 0.190899 4
164 1 7.13143 10.6971 0 0 0 0 1 -3.32708 0 2
165 1 7.10993 12.4713 1.78021 3.94071 -0.957529 -3.38272 1 -7.30463 0.0173587 4
166 1 8.02286 11.5886 0.891429 0 0 0 1 -7.03216 0 4
167 1 5.35419 8.90589 3.54771 4.4453 2.92115 3.21462 1 -7.42161 0.0240428 4
168 1 5.34415 12.4797 3.56925 -3.11482 -5.3551 3.82409 1 -7.35863 0.0329903 4
169 1 7.10518 10.6832 3.60867 4.05594 2.97693 17.3422 1 -7.33728 0.202951 4
170 1 8.91429 8.91429 0 0 0 0 1 -3.33 0 2
171 1 9.80572 9.80572 0.891429 0 0 0 1 -6.96594 0 4
172 1 10.7058 8.95174 1.80138 -2.49386 -9.98659 -0.237221 1 -7.34419 0.0659818 4
173 1 12.48 8.91429 0 0 0 0 1 -3.31004 0 2
174 1 11.5533 9.86406 2.69737 -2.01036 -6.08477 0.900262 1 -7.26772 0.026065 4
175 1 8.86916 10.7388 1.78173 -4.07851 -1.94089 0.444696 1 -7.33796 0.0128214 4
176 1 8.91429 12.48 0 0 0 0 1 -3.34738 0 2
177 1 9.7898 11.582 2.67099 -0.544174 -1.13294 -4.69892 1 -7.38138 0.0147263 4
178 1 10.6971 10.6971 0 0 0 0 1 -3.33189 0 2
179 1 10.6883 12.4781 1.80807 -8.18914 9.1105 1.625 1 -7.33261 0.0950469 4
180 1 12.4446 10.7365 1.78916 -2.89767 1.91642 8.41587 1 -7.29626 0.0515967 4
181 1 12.48 12.48 0 0 0 0 1 -3.3454 0 2
182 1 11.5886 11.5886 0.891429 0 0 0 1 -7.00454 0 4
183 1 8.95881 8.96739 3.57248 1.37041 3.84071 7.64342 1 -7.30025 0.0467137 4
184 1 12.5052 8.90958 3.59493 -1.16951 4.20647 -1.59482 1 -7.28821 0.0134479 4
185 1 8.91306 12.4667 3.61726 -2.76123 1.46754 -0.789937 1 -7.24 0.0064745 4
186 1 10.6906 10.7699 3.57143 0.599534 -5.34733 3.78679 1 -7.31351 0.0269468 4
187 1 12.4737 12.5125 3.55318 1.09857 1.2372 -0.674957 1 -7.36391 0.00198746 4
188 1 13.3714 9.80572 0.891429 0 0 0 1 -6.99708 0 4
189 1 14.2385 8.88279 1.79755 11.9206 2.53185 12.6301 1 -7.34695 0.191726 4
190 1 16.0457 8.91429 0 0 0 0 1 -3.34775 0 2
191 1 15.1269 9.79315 2.70236 -4.8944 2.88136 -1.84165 1 -7.23759 0.0221889 4
192 1 16.9371 9.80572 0.891429 0 0 0 1 -6.98169 0 4
193 1 13.3098 11.6144 2.71855 -0.17191 -6.07599 -2.9101 1 -7.3792 0.028268 4
194 1 14.2629 10.6971 0 0 0 0 1 -3.35312 0 2
195 1 14.2342 12.4922 1.79781 2.17944 -5.91015 2.31484 1 -7.3068 0.028033 4
196 1 16.0869 10.7554 1.77152 -5.5796 0.720846 -2.89725 1 -7.25265 0.0249254 4
197 1 16.0457 12.48 0 0 0 0 1 -3.30931 0 2
198 1 15.1543 11.5886 0.891429 0 0 0 1 -7.01039 0 4
199 1 16.9754 11.5976 2.63339 6.42695 -7.47555 -4.88245 1 -7.3645 0.0753309 4
200 1 16.0022 8.90465 3.54941 -3.64867 0.210428 4.42384 1 -7.38171 0.0204949 4
201 1 14.2145 10.7025 3.55496 1.93171 4.03465 -2.71878 1 -7.32546 0.0170555 4
202 1 16.0415 12.4601 3.52781 -1.17356 2.97914 -8.55044 1 -7.25499 0.051887 4
206 1 17.8174 8.93817 1.7623 1.37284 0.308352 -1.47149 1 -7.29664 0.00257999 4
207 1 19.6114 8.91429 0 0 0 0 1 -3.33054 0 2
208 1 18.6628 9.79951 2.67715 -2.17231 1.88892 -1.52611 1 -7.30404 0.00660764 4
209 1 20.5029 9.80572 0.891429 0 0 0 1 -6.97033 0 4
210 1 17.8286 10.6971 0 0 0 0 1 -3.32069 0 2
211 1 17.8927 12.4714 1.74308 7.72912 2.86943 -2.19741 1 -7.35004 0.0453136 4
212 1 19.594 10.7303 1.74456 4.52812 0.0412934 -9.71857 1 -7.30992 0.0715518 4
213 1 19.6114 12.48 0 0 0 0 1 -3.32117 0 2
214 1 18.72 11.5886 0.891429 0 0 0 1 -7.03368 0 4
215 1 20.5137 11.5482 2.63146 4.16801 3.97883 -1.3336 1 -7.30354 0.0217736 4
216 1 19.5985 8.91479 3.55772 0.103458 -0.540859 -5.21309 1 -7.34518 0.017104 4
217 1 17.8343 10.6949 3.54843 0.306462 -0.835152 -0.334152 1 -7.35005 0.000562085 4
218 1 19.6443 12.4632 3.55453 0.530232 -14.7911 6.65805 1 -7.28063 0.163939 4
219 1 0.912771 13.3639 2.65708 -0.249627 2.26627 0.905111 1 -7.40336 0.00374545 4
220 1 2.67429 13.3714 0.891429 0 0 0 1 -7.01221 0 4
221 1 0 14.2629 0 0 0 0 1 -3.31946 0 2
222 1 1.78312 14.256 1.76239 4.47322 -4.05146 -1.2974 1 -7.34842 0.0237189 4
223 1 1.78286 16.0457 0 0 0 0 1 -3.32215 0 2
224 1 0.891429 15.1543 0.891429 0 0 0 1 -7.02008 0 4
225 1 0.884898 16.904 2.68248 -2.89227 -0.378284 1.83996 1 -7.30415 0.007403 4
226 1 2.66063 15.2028 2.63807 1.44363 1.27338 4.92526 1 -7.324 0.0174054 4
227 1 2.67429 16.9371 0.891429 0 0 0 1 -6.94654 0 4
228 1 3.56572 14.2629 0 0 0 0 1 -3.33695 0 2
229 1 3.60349 16.0298 1.76149 -2.80408 -1.16369 -1.68349 1 -7.32265 0.00750097 4
230 1 1.75242 16.0426 3.5318 -3.08501 -0.823169 -7.80691 1 -7.37304 0.0442811 4
231 1 3.55645 14.2745 3.55016 -4.7171 5.14084 -10.7409 1 -7.36969 0.102106 4
233 1 0.00165081 16.0259 1.74474 5.61077 3.34795 0.886365 1 -7.3681 0.0270601 4
232 1 0.0144173 14.2338 3.56871 0.220901 -4.18319 7.16534 1 -7.37955 0.0428789 4
234 1 4.4254 13.3868 2.69382 2.11347 6.93849 -1.90791 1 -7.35795 0.0350111 4
235 1 6.24 13.3714 0.891429 0 0 0 1 -7.01809 0 4
236 1 8.02967 13.3879 2.6947 -0.93807 4.55598 -1.67891 1 -7.3163 0.0152218 4
237 1 5.36646 14.2793 1.79028 1.11368 -2.1945 -7.19916 1 -7.28643 0.0360285 4
238 1 5.34857 16.0457 0 0 0 0 1 -3.3361 0 2
239 1 4.45714 15.1543 0.891429 0 0 0 1 -7.05162 0 4
240 1 4.4406 16.9895 2.65214 7.7497 -2.76122 -3.89776 1 -7.30768 0.0515833 4
241 1 6.2912 15.1577 2.69484 -5.45632 -4.43172 -0.974704 1 -7.3176 0.0313464 4
242 1 6.24 16.9371 0.891429 0 0 0 1 -7.03783 0 4
243 1 7.13143 14.2629 0 0 0 0 1 -3.34734 0 2
244 1 7.16505 16.0617 1.78069 -3.33229 1.47376 -4.0419 1 -7.3665 0.018432 4
245 1 8.02286 15.1543 0.891429 0 0 0 1 -7.02383 0 4
246 1 8.00375 16.9643 2.68516 1.57219 5.89747 4.83185 1 -7.33547 0.0377183 4
247 1 5.34776 16.0351 3.5682 4.85579 7.10074 -4.74952 1 -7.27224 0.0600997 4
248 1 7.11607 14.2276 3.58131 3.13758 -2.27075 -0.0375622 1 -7.38642 0.00933772 4
249 1 9.80572 13.3714 0.891429 0 0 0 1 -6.98603 0 4
250 1 11.5788 13.4025 2.67977 0.822966 -0.585327 -9.98598 1 -7.37783 0.062703 4
251 1 8.90701 14.2696 1.80393 2.37554 -4.99816 -3.98221 1 -7.35776 0.0289321 4
252 1 8.91429 16.0457 0 0 0 0 1 -3.33058 0 2
253 1 9.81773 15.1787 2.69457 -4.70732 1.79764 -1.97179 1 -7.37799 0.0182236 4
254 1 9.80572 16.9371 0.891429 0 0 0 1 -7.05388 0 4
255 1 10.6971 14.2629 0 0 0 0 1 -3.34826 0 2
256 1 10.6919 16.06 1.78142 -9.40072 -0.691429 -2.14305 1 -7.33516 0.0581622 4
257 1 12.4695 14.3012 1.77241 -0.125521 1.38086 5.47583 1 -7.32813 0.0198599 4
258 1 12.48 16.0457 0 0 0 0 1 -3.32208 0 2
259 1 11.5886 15.1543 0.891429 0 0 0 1 -7.02837 0 4
260 1 11.5888 16.9172 2.70618 -4.09653 -7.76849 -1.89309 1 -7.33553 0.050239 4
261 1 8.91237 16.0445 3.56652 -6.73001 -0.117056 -4.07626 1 -7.28446 0.0385423 4
262 1 10.7002 14.308 3.53396 3.31285 -2.99631 -2.61708 1 -7.3142 0.0166823 4
263 1 12.4592 16.0768 3.56758 6.55419 4.74745 5.87567 1 -7.33681 0.0622545 4
264 1 13.3714 13.3714 0.891429 0 0 0 1 -6.99559 0 4
265 1 15.0996 13.3952 2.65631 -4.9192 11.8639 1.82359 1 -7.32955 0.10474 4
266 1 16.9371 13.3714 0.891429 0 0 0 1 -7.02565 0 4
267 1 13.3435 15.1582 2.67848 -1.84109 -2.52484 0.770334 1 -7.33653 0.00644699 4
268 1 13.3714 16.9371 0.891429 0 0 0 1 -7.03622 0 4
269 1 14.2629 14.2629 0 0 0 0 1 -3.31657 0 2
270 1 14.2694 16.0294 1.744 -6.58993 -0.471916 4.91282 1 -7.34406 0.0421916 4
271 1 16.0403 14.241 1.75052 2.40812 0.874496 -1.93673 1 -7.35994 0.00642014 4
272 1 16.0457 16.0457 0 0 0 0 1 -3.33961 0 2
273 1 15.1543 15.1543 0.891429 0 0 0 1 -7.00349 0 4
274 1 15.1843 16.9111 2.61839 -2.74313 -1.88937 3.97015 1 -7.33026 0.0167162 4
275 1 16.9298 15.1602 2.66896 -0.5081 10.0865 1.45236 1 -7.35832 0.0647979 4
276 1 16.9371 16.9371 0.891429 0 0 0 1 -7.02255 0 4
277 1 14.2383 14.2546 3.54837 9.12508 3.68297 -5.43045 1 -7.33305 0.0786256 4
278 1 16.048 16.0545 3.53016 2.08818 -4.9268 -3.94006 1 -7.35015 0.0274851 4
279 1 18.7484 13.3412 2.64611 0.219167 -2.69966 1.02248 1 -7.31225 0.00521695 4
280 1 20.5029 13.3714 0.891429 0 0 0 1 -7.01921 0 4
281 1 17.8286 14.2629 0 0 0 0 1 -3.3014 0 2
282 1 17.7939 16.059 1.77846 6.4824 6.64754 3.22445 1 -7.31572 0.0601316 4
283 1 19.6137 14.2256 1.79361 -7.80995 7.30261 -4.95424 1 -7.31136 0.0864351 4
284 1 19.6114 16.0457 0 0 0 0 1 -3.32367 0 2
285 1 18.72 15.1543 0.891429 0 0 0 1 -6.98061 0 4
286 1 18.7162 16.9455 2.68406 -1.78649 3.66217 4.32781 1 -7.29695 0.0219922 4
287 1 20.5239 15.1387 2.68257 0.750809 5.3056 3.38382 1 -7.33871 0.0249987 4
288 1 20.5029 16.9371 0.891429 0 0 0 1 -7.04582 0 4
289 1 17.8026 14.2792 3.54986 0.166683 4.09832 -3.6256 1 -7.35582 0.0186535 4
290 1 19.6204 15.9741 3.55353 -3.72626 5.42669 1.38 1 -7.35333 0.0281575 4
291 1 3.5813 21.3979 3.54697 4.09993 -0.0552685 2.80449 1 -7.33647 0.01536 4
293 1 0 17.8286 0 0 0 0 1 -3.33968 0 2
294 1 1.75191 17.8243 1.77787 -1.0328 5.16645 -4.70753 1 -7.3428 0.0310713 4
295 1 1.78286 19.6114 0 0 0 0 1 -3.33534 0 2
296 1 0.891429 18.72 0.891429 0 0 0 1 -7.02597 0 4
297 1 0.901902 20.475 2.62808 0.233489 -0.649143 2.49139 1 -7.30564 0.00415964 4
298 1 2.65774 18.7232 2.6642 2.74844 -4.71371 -3.10047 1 -7.31403 0.0245148 4
299 1 2.67429 20.5029 0.891429 0 0 0 1 -7.00996 0 4
300 1 3.56572 17.8286 0 0 0 0 1 -3.31622 0 2
301 1 3.51312 19.6198 1.76958 0.232294 7.76294 9.44302 1 -7.36478 0.0930451 4
302 1 1.76347 19.6089 3.58781 2.65419 4.95183 5.17051 1 -7.35736 0.0362872 4
303 1 3.53885 17.8392 3.51623 2.51817 3.88911 4.27392 1 -7.41195 0.0247307 4
306 1 7.11075 21.3404 3.52173 -3.50511 -5.62724 2.16833 1 -7.30584 0.030283 4
27 1 5.33471 21.4034 1.76941 6.72224 1.58092 -0.035779 1 -7.33652 0.029683 4
307 1 5.37345 17.8389 1.74984 2.63461 -2.51274 2.23689 1 -7.36291 0.0113647 4
308 1 5.34857 19.6114 0 0 0 0 1 -3.32221 0 2
309 1 4.45714 18.72 0.891429 0 0 0 1 -6.99034 0 4
310 1 4.41418 20.4888 2.67401 -1.33985 5.90283 -3.55496 1 -7.28 0.0306709 4
311 1 6.2548 18.6973 2.68377 6.01768 2.24265 -0.809128 1 -7.36262 0.0260776 4
312 1 6.24 20.5029 0.891429 0 0 0 1 -7.0214 0 4
313 1 7.13143 17.8286 0 0 0 0 1 -3.31217 0 2
314 1 7.12676 19.6112 1.7949 -0.143057 -2.27995 -1.77453 1 -7.32632 0.00520821 4
315 1 8.02286 18.72 0.891429 0 0 0 1 -6.9923 0 4
316 1 8.04392 20.5073 2.673 8.00398 2.89254 0.0360539 1 -7.35318 0.0450834 4
317 1 5.33241 19.5459 3.57359 -1.5894 -2.11288 6.75471 1 -7.29665 0.0327499 4
318 1 7.15881 17.8205 3.58774 -8.62809 -3.76614 0.0894532 1 -7.3412 0.0551693 4
319 1 10.6844 21.4121 3.52258 -5.52913 2.65039 2.86488 1 -7.36757 0.0285092 4
320 1 8.93295 21.3747 1.77098 -14.7252 8.39298 -6.01435 1 -7.36192 0.201321 4
321 1 12.5122 21.4136 1.79954 2.91319 4.97645 -2.29773 1 -7.26929 0.0239829 4
322 1 8.91303 17.8206 1.78173 -9.21787 -2.19103 -3.9482 1 -7.33364 0.0655776 4
323 1 8.91429 19.6114 0 0 0 0 1 -3.33411 0 2
324 1 9.79342 18.7101 2.6781 -3.43873 -0.217106 -4.39481 1 -7.35442 0.0194112 4
325 1 9.80572 20.5029 0.891429 0 0 0 1 -7.03297 0 4
326 1 10.6971 17.8286 0 0 0 0 1 -3.32595 0 2
327 1 10.6672 19.622 1.75762 -1.35799 -0.101198 -3.15566 1 -7.37448 0.00735245 4
328 1 12.496 17.8215 1.77561 -2.54215 4.19784 -6.13694 1 -7.35372 0.0384325 4
329 1 12.48 19.6114 0 0 0 0 1 -3.34356 0 2
330 1 11.5886 18.72 0.891429 0 0 0 1 -7.01031 0 4
331 1 11.5394 20.5193 2.67056 -1.18133 8.23645 -2.31541 1 -7.28387 0.0464303 4
332 1 8.93687 19.5819 3.55276 -3.81275 7.77316 3.0182 1 -7.36286 0.0523265 4
333 1 10.648 17.7852 3.55162 2.97613 3.08237 8.85914 1 -7.33438 0.0602774 4
334 1 12.4503 19.6473 3.51783 2.12749 2.88302 -7.18702 1 -7.31152 0.0401411 4
335 1 16.0508 21.3831 1.76161 0.0290455 0.103287 2.72137 1 -7.37078 0.00461675 4
337 1 13.3515 18.7348 2.67107 0.297461 0.8211 -0.668264 1 -7.34978 0.000752679 4
338 1 13.3714 20.5029 0.891429 0 0 0 1 -7.01601 0 4
339 1 14.2629 17.8286 0 0 0 0 1 -3.33593 0 2
340 1 14.2768 19.6286 1.76578 -3.73433 -2.25892 -3.88411 1 -7.33487 0.021246 4
341 1 16.0888 17.8329 1.76297 -4.58991 -1.99561 0.829426 1 -7.35134 0.0160198 4
342 1 16.0457 19.6114 0 0 0 0 1 -3.30535 0 2
343 1 15.1543 18.72 0.891429 0 0 0 1 -7.00496 0 4
344 1 15.1786 20.5221 2.63923 -2.12796 -5.22345 5.23767 1 -7.39992 0.0368762 4
345 1 16.9589 18.7355 2.64127 -0.676259 2.08119 -1.12283 1 -7.4045 0.00376532 4
346 1 16.9371 20.5029 0.891429 0 0 0 1 -7.02845 0 4
347 1 14.2401 17.8398 3.52904 -3.43982 3.84343 -1.03943 1 -7.24436 0.0172317 4
348 1 16.0615 19.6158 3.54498 0.528105 -2.86763 0.627772 1 -7.35125 0.00553728 4
305 1 21.4278 19.5952 1.75395 4.17654 -2.32697 -5.73602 1 -7.34758 0.0347066 4
304 1 21.4131 17.8033 3.58798 -0.107216 3.10018 -3.63534 1 -7.37404 0.0142151 4
351 1 17.8286 17.8286 0 0 0 0 1 -3.31828 0 2
352 1 17.8436 19.5949 1.76303 0.29105 -3.56112 -0.49386 1 -7.34069 0.00809787 4
353 1 19.6105 17.7805 1.77954 -1.40185 5.43227 2.60775 1 -7.32438 0.0238234 4
354 1 19.6114 19.6114 0 0 0 0 1 -3.33876 0 2
355 1 18.72 18.72 0.891429 0 0 0 1 -7.00966 0 4
356 1 18.754 20.4867 2.66613 6.03734 0.927298 3.66116 1 -7.33631 0.0315654 4
357 1 20.5286 18.6753 2.68221 -0.914212 -6.09952 5.61786 1 -7.29819 0.043321 4
358 1 20.5029 20.5029 0.891429 0 0 0 1 -7.01146 0 4
359 1 17.8327 17.8808 3.502 0.487271 -2.27125 5.51094 1 -7.32681 0.022262 4
360 1 19.5937 19.5607 3.56218 6.62042 -4.39964 4.02318 1 -7.29798 0.0494037 4
361 1 0.88504 0.842503 4.46883 5.20731 -3.90999 -3.48329 1 -7.26204 0.0339455 4
362 1 0.898508 2.68259 6.22173 5.97262 7.37571 -3.83191 1 -7.36832 0.0652034 4
363 1 2.6744 0.882986 6.24986 1.46549 6.33432 1.79377 1 -7.27674 0.0283135 4
364 1 2.67011 2.66242 4.46638 -4.80104 10.4714 -4.28115 1 -7.34171 0.0940039 4
365 1 3.59028 1.77544 5.32033 -0.788243 -3.46938 -4.72312 1 -7.36791 0.0217636 4
366 1 1.78784 3.51171 5.31988 4.31415 -5.60788 1.94965 1 -7.37968 0.0335247 4
367 1 1.7707 1.80419 7.11888 3.27933 4.93371 -4.73939 1 -7.34663 0.0358252 4
368 1 0.919094 0.895018 8.03848 2.48145 -0.798332 1.74215 1 -7.32302 0.00611847 4
369 1 2.64891 2.64355 8.04518 7.35981 4.32804 5.48803 1 -7.31448 0.0641207 4
370 1 3.57423 3.56045 7.10561 3.88969 -4.5448 2.40491 1 -7.35894 0.0258733 4
371 1 -0.0397057 3.57687 7.1435 -3.058 -2.2346 0.547466 1 -7.27854 0.00911513 4
652 1 1.7766 -0.0691334 5.35214 5.92259 5.85673 12.599 1 -7.28143 0.141983 4
372 1 4.47453 0.897649 4.42528 2.83703 2.11765 -4.72614 1 -7.35929 0.0217037 4
373 1 4.44562 2.69387 6.21039 0.74463 -2.92046 4.21689 1 -7.37604 0.0167219 4
374 1 6.29591 0.873225 6.19323 10.0221 0.268885 3.62509 1 -7.30747 0.0707431 4
375 1 6.23783 2.65725 4.4432 -1.0235 4.71361 -1.1091 1 -7.34611 0.0152468 4
376 1 7.15132 1.7361 5.2907 -1.23023 0.0858475 2.49598 1 -7.36069 0.00482428 4
377 1 7.97042 0.834197 4.42364 11.5152 -2.84027 -1.61629 1 -7.35211 0.0891807 4
378 1 8.01443 2.6421 6.18394 3.45123 -1.2035 5.78302 1 -7.30166 0.0291312 4
379 1 5.36609 3.4884 5.32078 1.26212 8.12068 7.93947 1 -7.39486 0.0812724 4
380 1 5.33026 1.79633 7.1017 0.0952174 -3.52752 6.47548 1 -7.20442 0.0338502 4
381 1 4.44717 0.876661 8.0545 5.74112 -1.55424 -0.557613 1 -7.29185 0.0222126 4
382 1 6.26291 2.69328 8.03703 1.23088 1.57727 0.406782 1 -7.27073 0.00259447 4
383 1 8.00114 0.875545 7.9941 -2.07657 -3.45511 4.24135 1 -7.32138 0.0213112 4
384 1 7.14437 3.54458 7.13129 -2.86689 -5.25397 -3.47711 1 -7.3171 0.0298227 4
665 1 7.12452 -0.0093015 7.10862 -0.396823 -7.2169 -3.71413 1 -7.34783 0.0411025 4
386 1 9.76072 0.891167 6.22798 0.45347 -0.447055 2.47736 1 -7.32503 0.0040724 4
387 1 9.76363 2.64831 4.42694 -2.37225 -0.14288 2.40096 1 -7.32626 0.00710351 4
388 1 10.6733 1.78602 5.30132 -4.69182 -6.54695 -2.2187 1 -7.31132 0.0434443 4
389 1 11.5827 0.908103 4.44792 2.39835 2.66431 1.79873 1 -7.33053 0.0100124 4
390 1 11.5919 2.6982 6.206 -3.57234 -10.6795 -3.53389 1 -7.29035 0.0867045 4
391 1 8.87436 3.55759 5.29966 1.4548 -2.3934 0.659373 1 -7.36359 0.00515343 4
392 1 12.5006 3.55959 5.303 -2.54391 -6.69603 3.72637 1 -7.34879 0.0405786 4
393 1 8.90286 1.75499 7.12262 0.955494 -1.00972 6.14102 1 -7.39591 0.0246759 4
394 1 9.76211 2.63967 8.02961 -3.03612 2.57341 4.07415 1 -7.30926 0.020191 4
395 1 12.4363 1.74496 7.09526 1.84173 -3.15607 1.48093 1 -7.30359 0.00967619 4
396 1 11.5278 0.908063 7.98429 2.30565 4.27722 -0.164427 1 -7.3102 0.0147127 4
397 1 10.6882 3.56022 7.13568 -0.872343 -3.33154 -7.52849 1 -7.3538 0.0426601 4
679 1 8.86456 -0.021635 5.31602 -1.33812 -1.34326 -4.54182 1 -7.34901 0.015077 4
680 1 12.4872 0.0200245 5.34306 -1.19404 1.72643 -0.639384 1 -7.37189 0.00299705 4
681 1 10.6437 0.000501796 7.06568 0.725401 -9.51055 1.8878 1 -7.3219 0.0588445 4
398 1 13.3447 0.892116 6.20736 6.94308 -3.90062 -6.53161 1 -7.33077 0.066029 4
399 1 13.3602 2.6353 4.43722 -4.91314 9.79957 0.211416 1 -7.31236 0.0748251 4
400 1 14.2938 1.77376 5.31691 5.28306 -9.41466 2.94871 1 -7.38742 0.0779536 4
401 1 15.1147 0.873624 4.41887 -3.41554 -6.67633 4.04485 1 -7.26987 0.0451882 4
402 1 15.1472 2.65748 6.19914 -2.95501 3.35107 4.66957 1 -7.4162 0.0259966 4
403 1 16.9216 0.913421 6.22601 2.31266 -5.11995 -4.7738 1 -7.41035 0.0338298 4
404 1 16.9581 2.68201 4.4424 -2.10578 1.61083 3.6314 1 -7.34615 0.012583 4
405 1 16.0529 3.5331 5.35636 3.80884 -2.55623 1.89516 1 -7.35113 0.0153323 4
406 1 13.3555 2.65376 8.01854 -4.36356 -5.69838 2.77321 1 -7.26739 0.0368494 4
407 1 16.0362 1.8036 7.10825 5.93565 -1.54176 -0.768316 1 -7.36634 0.0237762 4
408 1 15.1397 0.891828 8.01138 2.20245 7.28444 0.648225 1 -7.37149 0.0363086 4
409 1 16.9216 2.66199 8.00842 -1.55345 1.95829 1.52318 1 -7.39631 0.00533307 4
410 1 14.2142 3.56432 7.08773 -2.05883 2.23198 -5.63304 1 -7.28698 0.0254893 4
411 1 21.4028 1.77021 5.36772 4.31451 5.75301 -2.16538 1 -7.3084 0.0351055 4
412 1 17.8273 1.75351 5.35413 3.68807 -6.80053 0.832824 1 -7.34693 0.0376834 4
413 1 18.7337 0.874076 4.48805 -6.93618 2.15548 -1.47813 1 -7.33401 0.0341971 4
414 1 18.7332 2.66248 6.24745 -5.02887 6.17574 4.30376 1 -7.34085 0.0510089 4
415 1 20.5191 0.867736 6.29555 -9.303 -2.42648 5.38996 1 -7.3237 0.0756156 4
416 1 20.4651 2.66191 4.46024 -1.04732 -6.93491 12.6223 1 -7.28763 0.129783 4
417 1 19.5915 3.578 5.36392 3.9203 -5.24018 -8.74653 1 -7.36595 0.0742741 4
418 1 19.607 1.79691 7.1783 -1.58144 -5.14087 2.52822 1 -7.32812 0.021985 4
419 1 18.6764 0.893952 7.99989 -3.03252 6.2805 1.2933 1 -7.34899 0.0313164 4
420 1 20.5133 2.65654 8.03007 -9.48082 -7.2604 2.92319 1 -7.38183 0.0940763 4
421 1 17.8463 3.55052 7.14119 7.05833 -8.10054 1.29025 1 -7.29983 0.0728883 4
423 1 0.935624 4.42811 4.475 2.80848 6.0296 -1.33303 1 -7.36098 0.0286444 4
424 1 0.858792 6.23085 6.27115 2.64575 -5.29632 6.94366 1 -7.34266 0.0518265 4
425 1 2.66391 4.45473 6.2041 -2.77116 -7.49248 -6.48037 1 -7.32736 0.0658601 4
426 1 2.67085 6.27408 4.50542 5.92099 3.3881 -5.95929 1 -7.3721 0.0510704 4
427 1 3.5539 5.3369 5.32862 1.57036 -1.26347 5.6816 1 -7.29117 0.0226208 4
428 1 1.77933 7.12925 5.38672 0.987223 4.01749 -0.103155 1 -7.37342 0.0106594 4
429 1 0.923545 8.05856 4.525 10.2031 -5.24493 -3.96992 1 -7.30161 0.0917284 4
430 1 2.64413 8.00987 6.24044 10.7052 9.63652 -0.564778 1 -7.39581 0.129329 4
431 1 1.75828 5.32046 7.07992 4.16446 3.27076 6.2108 1 -7.34642 0.0414627 4
432 1 0.923111 4.43959 8.01942 -4.64317 -7.38622 3.28616 1 -7.30442 0.0540976 4
433 1 2.66274 6.26491 7.9931 0.824798 0.785995 0.890686 1 -7.28525 0.00130174 4