ITEM: TIMESTEP
49126150
ITEM: NUMBER OF ATOMS
3060
ITEM: BOX BOUNDS pp pp mm
0.0000000000000000e+00 2.1394294200000001e+01
0.0000000000000000e+00 2.1394294200000001e+01
-5.3491084073550004e-03 5.3485735499999997e+01
ITEM: ATOMS id type x y z vx vy vz c_clusts c_atom_pe c_atom_ke c_atom_coord
1 1 0 0 0 0 0 0 1 -3.32482 0 2
2 1 1.78286 1.78286 0 0 0 0 1 -3.36275 0 2
3 1 0.891429 0.891429 0.891429 0 0 0 1 -7.01312 0 4
4 1 0.903864 2.67957 2.64368 -0.911341 -1.29824 2.25085 1 -7.33604 0.0047194 4
5 1 2.68333 0.92384 2.7061 -7.44965 0.034783 -6.82701 1 -7.31248 0.0635538 4
6 1 2.67429 2.67429 0.891429 0 0 0 1 -6.96802 0 4
7 1 3.56572 0 0 0 0 0 1 -3.35181 0 2
8 1 3.60063 1.8202 1.82771 0.739056 6.51413 -3.92993 1 -7.31603 0.0363649 4
9 1 0 3.56572 0 0 0 0 1 -3.36393 0 2
10 1 1.80292 3.57852 1.79497 -3.15339 0.722026 -8.07022 1 -7.39178 0.0470515 4
11 1 3.56572 3.56572 0 0 0 0 1 -3.33096 0 2
12 1 1.73253 1.72787 3.57802 -2.46512 -5.05053 0.0724288 1 -7.30673 0.0196624 4
13 1 3.54459 3.60812 3.55317 -5.93747 5.81942 -6.00349 1 -7.31105 0.065455 4
292 1 1.79587 0.00968006 1.77892 5.33631 -0.933388 -3.27153 1 -7.33567 0.0249284 4
56 1 0.0134264 3.51709 3.55465 6.10192 6.72029 -2.77209 1 -7.31247 0.0560683 4
55 1 0.0182474 1.73868 1.79085 0.9575 3.26926 -3.65102 1 -7.32805 0.0155201 4
291 1 3.59271 0.0235119 3.58082 -1.27689 -4.76252 2.23078 1 -7.32667 0.0182299 4
350 1 -0.037368 -0.0379568 3.60067 -0.184247 -2.91992 -0.0468259 1 -7.32877 0.00532924 4
14 1 5.34857 1.78286 0 0 0 0 1 -3.32425 0 2
15 1 4.45714 0.891429 0.891429 0 0 0 1 -6.97834 0 4
16 1 4.47432 2.71853 2.66543 -1.57298 7.58054 1.34241 1 -7.32427 0.0384292 4
17 1 6.18892 0.879239 2.68098 -2.79194 7.96021 -1.05482 1 -7.32864 0.0449844 4
18 1 6.24 2.67429 0.891429 0 0 0 1 -7.01022 0 4
19 1 7.13143 0 0 0 0 0 1 -3.33415 0 2
20 1 7.15501 1.7666 1.74996 -4.38882 -1.50078 2.95033 1 -7.28354 0.0188088 4
21 1 8.02286 0.891429 0.891429 0 0 0 1 -7.05777 0 4
22 1 7.98544 2.67596 2.70366 -5.14989 9.08639 0.23726 1 -7.31381 0.0679317 4
23 1 5.36359 3.57658 1.76994 -0.650204 2.21775 7.59758 1 -7.41034 0.039253 4
24 1 7.13143 3.56572 0 0 0 0 1 -3.32857 0 2
25 1 5.35544 1.8067 3.5266 4.47063 3.92244 1.47078 1 -7.31731 0.0233629 4
26 1 7.1653 3.57663 3.62126 -7.31029 -2.08719 0.34193 1 -7.31268 0.0360469 4
306 1 7.1113 0.000898538 3.54739 -2.34666 1.86105 -0.988267 1 -7.30344 0.00619127 4
28 1 8.91429 1.78286 0 0 0 0 1 -3.34797 0 2
29 1 9.84192 0.922732 2.6527 8.82206 -3.38417 -4.19355 1 -7.31174 0.0665169 4
30 1 9.80572 2.67429 0.891429 0 0 0 1 -7.00123 0 4
31 1 10.6971 0 0 0 0 0 1 -3.34226 0 2
32 1 10.7156 1.77486 1.80679 -0.797599 0.022683 -4.07772 1 -7.34587 0.0107459 4
33 1 12.48 1.78286 0 0 0 0 1 -3.32424 0 2
34 1 11.5886 0.891429 0.891429 0 0 0 1 -7.01425 0 4
35 1 11.611 2.66469 2.70151 -5.10389 3.0812 4.07748 1 -7.37194 0.0324715 4
36 1 8.92511 3.58367 1.79518 3.23863 -5.12918 4.83191 1 -7.28666 0.0374356 4
37 1 10.6971 3.56572 0 0 0 0 1 -3.33485 0 2
38 1 12.4895 3.56039 1.77609 -1.39587 -4.64007 -8.11635 1 -7.40681 0.0556162 4
39 1 8.90382 1.78598 3.56565 -6.2266 -4.78517 3.32002 1 -7.24724 0.0452448 4
40 1 12.4589 1.76106 3.59468 1.40859 -4.81842 -2.10518 1 -7.37976 0.0184444 4
41 1 10.6819 3.53315 3.56002 2.58107 6.09615 -0.0924773 1 -7.34017 0.0272832 4
319 1 10.7228 0.0503097 3.57681 2.73769 3.26606 -0.174127 1 -7.35663 0.0113234 4
42 1 13.3737 0.876874 2.68074 -1.89781 7.2624 9.00431 1 -7.33311 0.0855349 4
43 1 13.3714 2.67429 0.891429 0 0 0 1 -7.0409 0 4
44 1 14.2629 0 0 0 0 0 1 -3.31031 0 2
45 1 14.2475 1.76541 1.75883 4.26295 -1.50913 4.6832 1 -7.30417 0.02638 4
46 1 16.0457 1.78286 0 0 0 0 1 -3.31347 0 2
47 1 15.1543 0.891429 0.891429 0 0 0 1 -7.02377 0 4
48 1 15.2111 2.66029 2.69383 0.21595 5.15576 2.35988 1 -7.2679 0.0200405 4
49 1 16.9623 0.834756 2.68828 -6.61326 1.28956 -1.54771 1 -7.34682 0.029748 4
50 1 16.9371 2.67429 0.891429 0 0 0 1 -6.99266 0 4
51 1 14.2629 3.56572 0 0 0 0 1 -3.34174 0 2
52 1 16.0342 3.56459 1.76982 -6.86268 5.46776 -1.92617 1 -7.33988 0.0502317 4
53 1 16.0934 1.76414 3.54142 -1.99136 3.77224 -0.752085 1 -7.34702 0.0116773 4
54 1 14.2901 3.5859 3.56435 -4.29186 -2.19135 0.18156 1 -7.28733 0.0144745 4
336 1 14.2828 -0.0124714 3.55724 10.6125 4.68722 -4.75672 1 -7.35881 0.0978592 4
57 1 17.8286 0 0 0 0 0 1 -3.32952 0 2
58 1 17.8241 1.72509 1.76639 -11.4181 1.43145 0.222107 1 -7.32013 0.0824538 4
59 1 19.6114 1.78286 0 0 0 0 1 -3.32976 0 2
60 1 18.72 0.891429 0.891429 0 0 0 1 -7.04459 0 4
61 1 18.6799 2.65866 2.67538 -3.49333 -1.43761 -1.12809 1 -7.33322 0.00967417 4
62 1 20.507 0.861206 2.66484 -0.941119 0.0262758 -1.74875 1 -7.39707 0.00245518 4
63 1 20.5029 2.67429 0.891429 0 0 0 1 -6.96469 0 4
64 1 17.8286 3.56572 0 0 0 0 1 -3.33809 0 2
65 1 19.6019 3.55332 1.80695 1.84464 0.473826 4.99524 1 -7.35184 0.0177887 4
66 1 19.5964 1.755 3.55514 -7.91667 1.59076 -3.12139 1 -7.36847 0.0466491 4
67 1 17.784 3.54385 3.56636 -7.54006 2.13988 -7.0571 1 -7.38798 0.0692351 4
68 1 19.6238 0.0193087 1.76133 -2.20862 2.27498 -2.1201 1 -7.36445 0.00905528 4
349 1 17.8337 -0.041192 3.57459 4.80615 -4.83186 0.348844 1 -7.29463 0.0289849 4
69 1 1.78286 5.34857 0 0 0 0 1 -3.34872 0 2
70 1 0.891429 4.45714 0.891429 0 0 0 1 -6.9763 0 4
71 1 0.870358 6.26866 2.70791 5.99305 -6.88436 -2.55908 1 -7.3156 0.0559311 4
72 1 2.68491 4.47016 2.655 -5.65523 2.07168 2.78649 1 -7.39335 0.0274104 4
73 1 2.67429 6.24 0.891429 0 0 0 1 -7.01328 0 4
74 1 3.56552 5.40054 1.77877 -3.50195 6.1113 -1.21888 1 -7.33339 0.0318043 4
75 1 0 7.13143 0 0 0 0 1 -3.35179 0 2
76 1 1.79352 7.1573 1.81236 -7.01636 -2.54471 -9.38444 1 -7.31198 0.0894878 4
77 1 0.891429 8.02286 0.891429 0 0 0 1 -7.0204 0 4
78 1 2.6833 7.98685 2.69763 5.15791 3.92915 -1.12696 1 -7.34116 0.0269587 4
79 1 3.56572 7.13143 0 0 0 0 1 -3.31943 0 2
80 1 1.7864 5.32444 3.58074 -5.8273 0.65749 -3.35158 1 -7.27189 0.0283968 4
81 1 3.55829 7.10853 3.56006 1.30255 6.14004 -2.75374 1 -7.39593 0.0292414 4
128 1 0.0307317 5.36407 1.83763 -5.50473 -1.93392 -1.31753 1 -7.30626 0.0222691 4
82 1 0.00320837 7.11311 3.56852 5.85161 1.36939 1.48714 1 -7.39758 0.0238564 4
83 1 5.34857 5.34857 0 0 0 0 1 -3.31556 0 2
84 1 4.45714 4.45714 0.891429 0 0 0 1 -6.99577 0 4
85 1 4.48097 6.25513 2.67481 3.71489 -10.7025 1.5844 1 -7.36517 0.0814468 4
86 1 6.23254 4.40519 2.69883 -0.703985 3.58557 4.83629 1 -7.31104 0.0228689 4
87 1 6.24 6.24 0.891429 0 0 0 1 -6.96527 0 4
88 1 7.12638 5.3101 1.84338 -2.96603 5.82736 -2.93582 1 -7.3024 0.0319769 4
89 1 8.02286 4.45714 0.891429 0 0 0 1 -6.98817 0 4
90 1 7.98558 6.25102 2.72021 -3.86732 4.24984 -1.9968 1 -7.33559 0.0230326 4
91 1 5.36468 7.13545 1.77641 -4.99328 -2.2943 -0.750284 1 -7.35313 0.0191456 4
92 1 4.45714 8.02286 0.891429 0 0 0 1 -7.01293 0 4
93 1 6.26788 8.04239 2.68423 2.3946 2.78858 -1.92523 1 -7.31654 0.0107162 4
94 1 7.13143 7.13143 0 0 0 0 1 -3.36838 0 2
95 1 8.02286 8.02286 0.891429 0 0 0 1 -7.03732 0 4
96 1 5.3229 5.31777 3.61119 2.47433 -1.27017 3.59725 1 -7.27612 0.0128692 4
97 1 7.12786 7.12232 3.56663 2.7659 -10.3498 5.14833 1 -7.33618 0.087932 4
98 1 8.91429 5.34857 0 0 0 0 1 -3.35851 0 2
99 1 9.80401 4.47104 2.69467 -2.35086 3.41756 -0.212227 1 -7.37794 0.0107377 4
100 1 9.80572 6.24 0.891429 0 0 0 1 -7.00091 0 4
101 1 10.7078 5.35213 1.81059 7.30452 -2.9287 -1.76088 1 -7.35332 0.0404788 4
102 1 12.48 5.34857 0 0 0 0 1 -3.33798 0 2
103 1 11.5886 4.45714 0.891429 0 0 0 1 -7.02828 0 4
104 1 11.5874 6.27802 2.6695 7.65195 7.63061 -4.16589 1 -7.41013 0.0834881 4
105 1 8.92977 7.15885 1.78334 -0.850739 -4.95567 -6.16909 1 -7.29271 0.0394246 4
106 1 9.80531 8.02627 2.73358 -1.13742 -6.77957 -5.07268 1 -7.33305 0.0454298 4
107 1 10.6971 7.13143 0 0 0 0 1 -3.33401 0 2
108 1 12.4612 7.14496 1.78769 3.18595 -3.79775 2.76449 1 -7.34737 0.0200518 4
109 1 11.5886 8.02286 0.891429 0 0 0 1 -7.00496 0 4
110 1 8.92193 5.40939 3.58877 -6.1294 1.25498 -4.06262 1 -7.25178 0.0346376 4
111 1 12.4745 5.3874 3.5632 -1.57932 11.7549 -6.23793 1 -7.30963 0.111778 4
112 1 10.7014 7.14213 3.60768 -2.22857 -1.98906 3.78123 1 -7.40742 0.0144531 4
113 1 13.391 4.43408 2.66456 2.15161 -11.7129 2.21057 1 -7.33606 0.0913155 4
114 1 13.3714 6.24 0.891429 0 0 0 1 -6.98074 0 4
115 1 14.273 5.34726 1.839 -6.07237 3.87409 -4.35616 1 -7.26377 0.0441041 4
116 1 16.0457 5.34857 0 0 0 0 1 -3.34546 0 2
117 1 15.1543 4.45714 0.891429 0 0 0 1 -6.98969 0 4
118 1 15.2001 6.26029 2.66828 9.10144 4.34166 2.99056 1 -7.23604 0.0688588 4
119 1 16.9279 4.46536 2.64588 1.64038 -4.26389 -3.56592 1 -7.31726 0.0209057 4
120 1 16.9371 6.24 0.891429 0 0 0 1 -7.00799 0 4
121 1 13.3533 8.08861 2.67377 -0.317386 0.455 -5.22832 1 -7.38086 0.0172058 4
122 1 14.2629 7.13143 0 0 0 0 1 -3.34949 0 2
123 1 16.0771 7.14851 1.75193 2.7212 -4.50528 -4.58589 1 -7.35181 0.0303326 4
124 1 15.1543 8.02286 0.891429 0 0 0 1 -7.03631 0 4
125 1 16.9229 8.05474 2.69441 -4.53357 2.61099 8.07725 1 -7.29328 0.0576444 4
126 1 16.0377 5.32394 3.6016 -9.24054 -4.79087 3.17144 1 -7.3199 0.073694 4
127 1 14.2219 7.17923 3.55821 1.87691 -1.01837 1.5712 1 -7.20928 0.00437475 4
129 1 17.817 5.33149 1.81568 -3.11719 -1.42387 -7.97768 1 -7.37694 0.0469233 4
130 1 19.6114 5.34857 0 0 0 0 1 -3.34741 0 2
131 1 18.72 4.45714 0.891429 0 0 0 1 -6.99185 0 4
132 1 18.6825 6.22185 2.6644 -6.07292 0.689849 -8.00791 1 -7.39534 0.0631656 4
133 1 20.4987 4.42819 2.69067 -3.13598 -0.0447234 -0.769063 1 -7.28078 0.00649054 4
134 1 20.5029 6.24 0.891429 0 0 0 1 -6.94182 0 4
135 1 17.8286 7.13143 0 0 0 0 1 -3.31757 0 2
136 1 19.5607 7.11711 1.7808 -1.79438 -4.98645 5.44984 1 -7.35532 0.0359671 4
137 1 18.72 8.02286 0.891429 0 0 0 1 -7.06001 0 4
138 1 20.5024 7.99199 2.66149 0.12037 6.53068 -6.96878 1 -7.34768 0.0567828 4
139 1 19.5635 5.33358 3.58555 1.93208 3.37131 5.74507 1 -7.28331 0.0299415 4
140 1 17.8167 7.09422 3.57253 3.00597 9.56542 1.09943 1 -7.34137 0.0633268 4
141 1 1.78286 8.91429 0 0 0 0 1 -3.3354 0 2
142 1 0.877946 9.80136 2.63466 -4.28925 -2.03517 -8.18742 1 -7.33346 0.0557528 4
143 1 2.67429 9.80572 0.891429 0 0 0 1 -7.02821 0 4
144 1 3.54667 8.92217 1.76241 3.34891 -4.36435 3.02049 1 -7.30422 0.024515 4
145 1 0 10.6971 0 0 0 0 1 -3.3447 0 2
146 1 1.78381 10.6901 1.81394 1.38237 5.53027 5.25479 1 -7.3585 0.0374126 4
147 1 1.78286 12.48 0 0 0 0 1 -3.33255 0 2
148 1 0.891429 11.5886 0.891429 0 0 0 1 -6.97819 0 4
149 1 2.63438 11.614 2.67624 0.901528 0.238394 7.65815 1 -7.30977 0.0370448 4
150 1 3.56572 10.6971 0 0 0 0 1 -3.34234 0 2
151 1 3.58898 12.5161 1.77647 3.1644 -6.62668 2.3874 1 -7.32845 0.0371128 4
152 1 1.78885 8.88494 3.54285 -2.44166 1.4323 7.18995 1 -7.32315 0.0371642 4
153 1 1.72866 12.4782 3.55343 -0.357708 -1.58228 -1.8264 1 -7.33935 0.0037142 4
154 1 3.54652 10.71 3.55444 0.928515 -1.80771 -5.37168 1 -7.35492 0.0205307 4
205 1 0.021523 8.88733 1.77539 7.79864 -5.71945 -1.6322 1 -7.35611 0.0598743 4
204 1 0.0274687 12.5029 1.75508 12.8013 -1.76385 -1.01066 1 -7.32702 0.104571 4
155 1 5.34857 8.91429 0 0 0 0 1 -3.32406 0 2
156 1 4.43418 9.82415 2.66162 2.62905 7.04878 -2.63148 1 -7.35002 0.0395376 4
157 1 6.24 9.80572 0.891429 0 0 0 1 -6.95122 0 4
158 1 7.2041 8.93741 1.77431 9.48903 4.13235 3.26768 1 -7.3067 0.0733192 4
159 1 8.01523 9.8455 2.70152 7.72828 5.14672 0.0145268 1 -7.37324 0.0536627 4
160 1 5.29011 10.7047 1.77137 -2.08634 5.11065 1.11516 1 -7.35974 0.0197403 4
161 1 5.34857 12.48 0 0 0 0 1 -3.32244 0 2
162 1 4.45714 11.5886 0.891429 0 0 0 1 -7.03817 0 4
163 1 6.20575 11.5796 2.6401 2.75899 -1.1531 -6.49003 1 -7.34159 0.0317824 4
164 1 7.13143 10.6971 0 0 0 0 1 -3.31132 0 2
165 1 7.12033 12.4727 1.74542 0.547125 -5.99689 2.15345 1 -7.31587 0.0254568 4
166 1 8.02286 11.5886 0.891429 0 0 0 1 -7.04037 0 4
167 1 5.33254 8.87584 3.52039 3.90195 -3.24204 5.03084 1 -7.28588 0.031772 4
168 1 5.34189 12.4902 3.54402 -1.54041 -0.950909 1.40409 1 -7.36122 0.00326685 4
169 1 7.12684 10.6918 3.53149 0.128625 -2.20327 7.21463 1 -7.32196 0.0354296 4
170 1 8.91429 8.91429 0 0 0 0 1 -3.30871 0 2
171 1 9.80572 9.80572 0.891429 0 0 0 1 -6.95303 0 4
172 1 10.7124 8.90899 1.81215 -17.0609 -1.29951 -3.1444 1 -7.32265 0.188377 4
173 1 12.48 8.91429 0 0 0 0 1 -3.355 0 2
174 1 11.6042 9.83869 2.67852 -5.48742 -0.75167 -0.512951 1 -7.33199 0.0192578 4
175 1 8.86916 10.7388 1.78173 -4.07851 -1.94089 0.444696 1 -7.32143 0.0128214 4
176 1 8.91429 12.48 0 0 0 0 1 -3.34199 0 2
177 1 9.8003 11.615 2.66921 -5.70374 -0.00821931 0.908651 1 -7.35286 0.0207631 4
178 1 10.6971 10.6971 0 0 0 0 1 -3.33458 0 2
179 1 10.6611 12.528 1.80007 -4.26154 -5.32798 1.31772 1 -7.30299 0.0300535 4
180 1 12.4909 10.7154 1.77899 1.92337 -1.60523 -1.80458 1 -7.3718 0.00593336 4
181 1 12.48 12.48 0 0 0 0 1 -3.32481 0 2
182 1 11.5886 11.5886 0.891429 0 0 0 1 -6.9668 0 4
183 1 8.91663 8.93726 3.58506 -2.57917 -3.72672 8.52758 1 -7.36076 0.0580476 4
184 1 12.5035 8.95569 3.56276 -1.02569 0.562625 -0.475685 1 -7.30665 0.000992686 4
185 1 8.91638 12.4779 3.55741 -7.51724 -0.262848 0.521489 1 -7.34208 0.0353849 4
186 1 10.7111 10.7167 3.58246 -2.35492 0.214282 2.04573 1 -7.33704 0.00608519 4
187 1 12.4524 12.4799 3.54062 -4.82807 4.94538 5.25504 1 -7.32751 0.04692 4
188 1 13.3714 9.80572 0.891429 0 0 0 1 -7.00841 0 4
189 1 14.2798 8.95506 1.77158 3.74284 3.13519 3.44648 1 -7.38101 0.0222309 4
190 1 16.0457 8.91429 0 0 0 0 1 -3.3137 0 2
191 1 15.1354 9.85534 2.66497 -6.04044 -3.75705 4.43855 1 -7.35465 0.0437585 4
192 1 16.9371 9.80572 0.891429 0 0 0 1 -7.00838 0 4
193 1 13.3622 11.6088 2.6816 -6.79895 -3.64004 -1.33636 1 -7.3801 0.0381308 4
194 1 14.2629 10.6971 0 0 0 0 1 -3.33894 0 2
195 1 14.2926 12.4633 1.78575 -1.94202 -5.53796 -5.47739 1 -7.33097 0.0401106 4
196 1 16.0869 10.7554 1.77152 -5.5796 0.720846 -2.89725 1 -7.31197 0.0249254 4
197 1 16.0457 12.48 0 0 0 0 1 -3.3258 0 2
198 1 15.1543 11.5886 0.891429 0 0 0 1 -7.02024 0 4
199 1 16.9334 11.6226 2.66236 2.68961 0.583101 2.61271 1 -7.40248 0.00896309 4
200 1 16.0629 8.97014 3.52282 2.38119 -3.34396 8.46552 1 -7.319 0.0550954 4
201 1 14.2434 10.7489 3.53978 4.07096 3.6499 -0.465985 1 -7.28292 0.0187423 4
202 1 16.0516 12.4583 3.56835 9.84885 5.85264 -7.46845 1 -7.34552 0.116413 4
203 1 21.3627 10.6723 3.56189 1.36128 -2.62391 -6.32079 1 -7.31105 0.0303062 4
206 1 17.8391 8.88573 1.77083 0.240984 2.20045 0.537419 1 -7.32205 0.00322969 4
207 1 19.6114 8.91429 0 0 0 0 1 -3.34016 0 2
208 1 18.6736 9.7407 2.6792 -5.50667 -1.61244 -5.81262 1 -7.31847 0.041522 4
209 1 20.5029 9.80572 0.891429 0 0 0 1 -6.99705 0 4
210 1 17.8286 10.6971 0 0 0 0 1 -3.31238 0 2
211 1 17.8429 12.5209 1.81744 0.668195 13.4117 0.176353 1 -7.32468 0.112255 4
212 1 19.6134 10.6633 1.76042 5.11819 -4.63902 -8.00624 1 -7.29982 0.0695974 4
213 1 19.6114 12.48 0 0 0 0 1 -3.3318 0 2
214 1 18.72 11.5886 0.891429 0 0 0 1 -6.97662 0 4
215 1 20.4979 11.5504 2.66604 -3.34241 5.84514 1.16895 1 -7.3058 0.0290697 4
216 1 19.6063 8.86834 3.54196 -0.17295 6.39514 -6.50076 1 -7.34388 0.0517781 4
217 1 17.8559 10.7057 3.54068 4.84847 5.38936 -7.18154 1 -7.33312 0.0648116 4
218 1 19.6375 12.468 3.56488 0.426548 -0.509623 2.50483 1 -7.33436 0.0041801 4
219 1 0.883198 13.3889 2.65806 -3.15774 6.12603 7.91453 1 -7.3317 0.0685537 4
220 1 2.67429 13.3714 0.891429 0 0 0 1 -7.01775 0 4
221 1 0 14.2629 0 0 0 0 1 -3.299 0 2
222 1 1.78312 14.256 1.76239 4.47322 -4.05146 -1.2974 1 -7.37404 0.0237189 4
223 1 1.78286 16.0457 0 0 0 0 1 -3.31261 0 2
224 1 0.891429 15.1543 0.891429 0 0 0 1 -7.039 0 4
225 1 0.886497 16.918 2.65975 -1.21536 -0.447014 -0.745363 1 -7.32785 0.00138955 4
226 1 2.65926 15.169 2.66559 0.926011 3.36648 4.89592 1 -7.37259 0.0225074 4
227 1 2.67429 16.9371 0.891429 0 0 0 1 -6.96985 0 4
228 1 3.56572 14.2629 0 0 0 0 1 -3.31294 0 2
229 1 3.55165 16.0158 1.76494 -6.49724 12.7574 -9.55674 1 -7.35309 0.184423 4
230 1 1.79375 16.0157 3.54805 -3.11213 1.30138 -2.79392 1 -7.36967 0.0119412 4
231 1 3.55957 14.2841 3.55232 -9.96707 -7.90861 -4.41693 1 -7.36577 0.112907 4
233 1 0.00165081 16.0259 1.74474 5.61077 3.34795 0.886365 1 -7.36151 0.0270601 4
232 1 0.0297466 14.2694 3.6274 -4.49523 -0.348679 7.48007 1 -7.28666 0.0474787 4
234 1 4.42455 13.402 2.68098 6.5983 2.40509 6.9154 1 -7.35552 0.0604654 4
235 1 6.24 13.3714 0.891429 0 0 0 1 -7.01547 0 4
236 1 8.03086 13.3687 2.6842 2.89428 -2.62349 1.54269 1 -7.3237 0.0109792 4
237 1 5.3405 14.2763 1.76468 -3.69125 -1.34705 -3.20003 1 -7.34604 0.015984 4
238 1 5.34857 16.0457 0 0 0 0 1 -3.35096 0 2
239 1 4.45714 15.1543 0.891429 0 0 0 1 -7.04691 0 4
240 1 4.44619 16.9604 2.64669 4.10838 -0.964022 -1.14899 1 -7.32333 0.0119059 4
241 1 6.28153 15.1365 2.65222 -6.81751 -4.21887 -2.1162 1 -7.34104 0.0427953 4
242 1 6.24 16.9371 0.891429 0 0 0 1 -7.01798 0 4
243 1 7.13143 14.2629 0 0 0 0 1 -3.32709 0 2
244 1 7.16505 16.0617 1.78069 -3.33229 1.47376 -4.0419 1 -7.35211 0.018432 4
245 1 8.02286 15.1543 0.891429 0 0 0 1 -6.98872 0 4
246 1 8.02768 16.9249 2.68318 5.54046 5.33155 5.56954 1 -7.4139 0.0561067 4
247 1 5.38748 16.0625 3.50801 10.5549 3.3812 1.90802 1 -7.28648 0.0787238 4
248 1 7.12332 14.2581 3.54852 6.41503 -4.18222 -4.03847 1 -7.39432 0.0466526 4
249 1 9.80572 13.3714 0.891429 0 0 0 1 -7.02767 0 4
250 1 11.572 13.4298 2.65194 1.6345 -11.0369 -2.59335 1 -7.37048 0.0816682 4
251 1 8.91667 14.2198 1.77634 8.84752 -0.616855 -1.01506 1 -7.31618 0.0496008 4
252 1 8.91429 16.0457 0 0 0 0 1 -3.33083 0 2
253 1 9.79115 15.1489 2.68315 2.42821 11.3895 2.09512 1 -7.33319 0.0871442 4
254 1 9.80572 16.9371 0.891429 0 0 0 1 -7.03438 0 4
255 1 10.6971 14.2629 0 0 0 0 1 -3.35517 0 2
256 1 10.6919 16.06 1.78142 -9.40072 -0.691429 -2.14305 1 -7.32356 0.0581622 4
257 1 12.4695 14.3012 1.77241 -0.125521 1.38086 5.47583 1 -7.3668 0.0198599 4
258 1 12.48 16.0457 0 0 0 0 1 -3.32208 0 2
259 1 11.5886 15.1543 0.891429 0 0 0 1 -7.00169 0 4
260 1 11.625 16.9393 2.63538 0.346482 -0.869249 0.649888 1 -7.35901 0.000807908 4
261 1 8.90538 16.0417 3.56119 -6.75471 -0.256781 -2.9812 1 -7.40247 0.0339718 4
262 1 10.6662 14.2925 3.52474 2.04706 0.257709 -12.7351 1 -7.26699 0.103596 4
263 1 12.4676 16.0662 3.51255 1.38726 8.15305 2.53641 1 -7.27721 0.0465763 4
264 1 13.3714 13.3714 0.891429 0 0 0 1 -6.96316 0 4
265 1 15.1424 13.3869 2.6757 0.447753 6.98364 3.63054 1 -7.34155 0.0386853 4
266 1 16.9371 13.3714 0.891429 0 0 0 1 -7.01497 0 4
267 1 13.3847 15.151 2.64955 -0.0919212 3.97604 3.9796 1 -7.37767 0.0197026 4
268 1 13.3714 16.9371 0.891429 0 0 0 1 -7.02281 0 4
269 1 14.2629 14.2629 0 0 0 0 1 -3.30833 0 2
270 1 14.2694 16.0294 1.744 -6.58993 -0.471916 4.91282 1 -7.336 0.0421916 4
271 1 16.0458 14.2389 1.77478 0.277663 -3.33677 -4.5912 1 -7.33379 0.0200983 4
272 1 16.0457 16.0457 0 0 0 0 1 -3.34145 0 2
273 1 15.1543 15.1543 0.891429 0 0 0 1 -7.02809 0 4
274 1 15.1634 16.969 2.67158 1.33633 6.45215 -2.42438 1 -7.29125 0.0306817 4
275 1 16.9434 15.1428 2.70775 2.70297 2.09773 -2.99442 1 -7.29662 0.0128675 4
276 1 16.9371 16.9371 0.891429 0 0 0 1 -7.06264 0 4
277 1 14.2608 14.2626 3.54992 5.509 1.62628 -7.57808 1 -7.3682 0.0562805 4
278 1 16.0228 16.063 3.59768 3.17499 -0.323011 -11.9497 1 -7.33914 0.0952185 4
279 1 18.7538 13.3994 2.66827 3.18977 -1.77524 -1.4634 1 -7.37127 0.00962745 4
280 1 20.5029 13.3714 0.891429 0 0 0 1 -7.00552 0 4
281 1 17.8286 14.2629 0 0 0 0 1 -3.33221 0 2
282 1 17.7939 16.059 1.77846 6.4824 6.64754 3.22445 1 -7.33506 0.0601316 4
283 1 19.5996 14.3013 1.75732 1.33373 -4.02828 -1.0234 1 -7.34234 0.0118592 4
284 1 19.6114 16.0457 0 0 0 0 1 -3.31368 0 2
285 1 18.72 15.1543 0.891429 0 0 0 1 -7.01539 0 4
286 1 18.6862 16.9215 2.66783 -0.414321 2.08887 3.22256 1 -7.34434 0.00928657 4
287 1 20.5152 15.2108 2.67548 2.41599 0.903859 9.08478 1 -7.24889 0.0555125 4
288 1 20.5029 16.9371 0.891429 0 0 0 1 -7.03513 0 4
289 1 17.8543 14.2595 3.59098 8.00314 3.28206 0.185297 1 -7.38658 0.0465927 4
290 1 19.6246 16.0111 3.5297 -6.97781 2.66334 2.56148 1 -7.3055 0.0388048 4
293 1 0 17.8286 0 0 0 0 1 -3.34229 0 2
294 1 1.75191 17.8243 1.77787 -1.0328 5.16645 -4.70753 1 -7.33076 0.0310713 4
295 1 1.78286 19.6114 0 0 0 0 1 -3.33512 0 2
296 1 0.891429 18.72 0.891429 0 0 0 1 -7.01125 0 4
297 1 0.880984 20.5166 2.67613 7.91377 -2.83018 1.59728 1 -7.32561 0.0455548 4
298 1 2.63457 18.6889 2.56742 1.26634 -3.65502 -2.62927 1 -7.23343 0.0136161 4
299 1 2.67429 20.5029 0.891429 0 0 0 1 -7.02992 0 4
300 1 3.56572 17.8286 0 0 0 0 1 -3.33582 0 2
301 1 3.51312 19.6198 1.76958 0.232294 7.76294 9.44302 1 -7.34761 0.0930451 4
302 1 1.76359 19.6149 3.53851 1.90798 3.19024 2.94152 1 -7.28732 0.0139863 4
303 1 3.56133 17.8016 3.49426 -5.47625 -3.31654 2.69922 1 -7.32552 0.0300474 4
305 1 0.0132923 19.6242 1.78907 3.22504 1.63396 -0.987484 1 -7.32398 0.0087425 4
27 1 5.34999 21.3827 1.77041 -1.12914 -2.35258 5.3808 1 -7.30431 0.0222596 4
307 1 5.35235 17.8484 1.79523 0.79082 -1.77369 7.05632 1 -7.35044 0.033339 4
308 1 5.34857 19.6114 0 0 0 0 1 -3.33294 0 2
309 1 4.45714 18.72 0.891429 0 0 0 1 -6.97413 0 4
310 1 4.39166 20.499 2.70361 -3.987 0.150703 1.26642 1 -7.30268 0.0109066 4
311 1 6.21944 18.7532 2.6818 -1.70349 8.03654 2.14938 1 -7.37313 0.0448817 4
312 1 6.24 20.5029 0.891429 0 0 0 1 -7.04383 0 4
313 1 7.13143 17.8286 0 0 0 0 1 -3.31823 0 2
314 1 7.13505 19.6159 1.77277 -4.47427 1.287 -2.18842 1 -7.33206 0.0164723 4
315 1 8.02286 18.72 0.891429 0 0 0 1 -7.03385 0 4
316 1 8.007 20.5252 2.70614 4.07061 4.95853 5.31485 1 -7.38707 0.0431992 4
317 1 5.3156 19.6101 3.60528 0.0383 -1.28375 6.56252 1 -7.3436 0.0278325 4
318 1 7.16045 17.8371 3.5123 -9.90887 1.39761 -1.88576 1 -7.27333 0.0645425 4
320 1 8.88357 21.4076 1.7991 2.39814 4.30832 2.95784 1 -7.33108 0.0205783 4
321 1 12.4871 21.3891 1.7569 2.68565 2.18662 1.79515 1 -7.293 0.0094712 4
322 1 8.91303 17.8206 1.78173 -9.21787 -2.19103 -3.9482 1 -7.31696 0.0655776 4
323 1 8.91429 19.6114 0 0 0 0 1 -3.32489 0 2
324 1 9.78608 18.7514 2.67071 3.99434 -6.16174 -4.31604 1 -7.35149 0.045157 4
325 1 9.80572 20.5029 0.891429 0 0 0 1 -6.99198 0 4
326 1 10.6971 17.8286 0 0 0 0 1 -3.32595 0 2
327 1 10.6672 19.622 1.75762 -1.35799 -0.101198 -3.15566 1 -7.37823 0.00735245 4
328 1 12.496 17.8215 1.77561 -2.54215 4.19784 -6.13694 1 -7.42376 0.0384325 4
329 1 12.48 19.6114 0 0 0 0 1 -3.33021 0 2
330 1 11.5886 18.72 0.891429 0 0 0 1 -7.02439 0 4
331 1 11.5443 20.512 2.68526 -3.32432 5.31946 3.9953 1 -7.27699 0.0344265 4
332 1 8.90669 19.6173 3.58574 -9.13883 4.89336 2.4227 1 -7.36849 0.0705412 4
333 1 10.6638 17.8214 3.53644 8.02273 -1.73349 3.75801 1 -7.28276 0.0507226 4
334 1 12.4754 19.6034 3.54708 -2.21897 -2.53197 -5.42009 1 -7.30031 0.0253402 4
335 1 16.0508 21.3831 1.76161 0.0290455 0.103287 2.72137 1 -7.34634 0.00461675 4
337 1 13.356 18.7143 2.68324 2.52123 7.53251 6.33428 1 -7.37501 0.0642459 4
338 1 13.3714 20.5029 0.891429 0 0 0 1 -7.04094 0 4
339 1 14.2629 17.8286 0 0 0 0 1 -3.33593 0 2
340 1 14.2768 19.6286 1.76578 -3.73433 -2.25892 -3.88411 1 -7.33249 0.021246 4
341 1 16.0888 17.8329 1.76297 -4.58991 -1.99561 0.829426 1 -7.33732 0.0160198 4
342 1 16.0457 19.6114 0 0 0 0 1 -3.3004 0 2
343 1 15.1543 18.72 0.891429 0 0 0 1 -7.00888 0 4
344 1 15.1431 20.5235 2.68607 -4.63602 0.39636 0.0323273 1 -7.36408 0.0134761 4
345 1 16.9496 18.7318 2.6523 -1.57163 4.2024 -2.14051 1 -7.39732 0.0153814 4
346 1 16.9371 20.5029 0.891429 0 0 0 1 -7.04556 0 4
347 1 14.2477 17.8901 3.58503 3.54188 -3.55084 -2.44576 1 -7.33206 0.0193793 4
348 1 16.0398 19.6137 3.56526 1.06538 0.449014 0.592346 1 -7.36847 0.00105036 4
304 1 21.3968 17.8479 3.55923 0.445419 -1.77538 -2.56593 1 -7.33357 0.00618342 4
351 1 17.8286 17.8286 0 0 0 0 1 -3.30569 0 2
352 1 17.7965 19.6109 1.74114 -2.42287 -1.83071 -2.42911 1 -7.35984 0.00941256 4
353 1 19.6105 17.7805 1.77954 -1.40185 5.43227 2.60775 1 -7.36946 0.0238234 4
354 1 19.6114 19.6114 0 0 0 0 1 -3.34649 0 2
355 1 18.72 18.72 0.891429 0 0 0 1 -6.96918 0 4
356 1 18.726 20.4958 2.62827 4.71953 -3.97403 0.930733 1 -7.32472 0.024233 4
357 1 20.4821 18.6947 2.65396 5.57781 -3.37978 7.91476 1 -7.33606 0.0654657 4
358 1 20.5029 20.5029 0.891429 0 0 0 1 -6.99516 0 4
359 1 17.8348 17.8435 3.52894 3.18837 -1.39515 -1.77189 1 -7.327 0.00949309 4
360 1 19.6103 19.6125 3.50586 -0.0240927 -6.1114 -7.04612 1 -7.29471 0.0541496 4
361 1 0.85997 0.868745 4.46967 2.88415 -11.9262 0.250444 1 -7.34336 0.0937463 4
362 1 0.881575 2.68123 6.25045 2.00011 4.50139 1.0572 1 -7.34671 0.0157975 4
363 1 2.6415 0.912863 6.2653 -0.573059 6.67836 1.67615 1 -7.35401 0.0297136 4
364 1 2.62529 2.60688 4.44514 3.23952 5.45057 -3.69889 1 -7.25836 0.0335394 4
365 1 3.52862 1.74735 5.36373 6.58586 -5.54031 4.93709 1 -7.32956 0.0612738 4
366 1 1.78152 3.5288 5.3305 -2.01737 -9.05995 -1.66657 1 -7.25871 0.0553523 4
367 1 1.73232 1.76339 7.14185 2.7568 6.62899 -5.28939 1 -7.36907 0.049496 4
368 1 0.884186 0.889276 8.06563 1.4172 2.75257 -6.27099 1 -7.3668 0.0304431 4
369 1 2.64743 2.67501 8.03636 12.6784 -4.81123 -2.01882 1 -7.30923 0.116995 4
370 1 3.56144 3.57137 7.15897 -3.21086 -9.69458 4.75936 1 -7.38195 0.0790145 4
411 1 -0.0161597 1.78329 5.35268 0.289459 -0.995316 0.817082 1 -7.29303 0.00108431 4
371 1 -0.0257921 3.57974 7.13928 -7.52065 6.41142 -0.995712 1 -7.33778 0.0614073 4
651 1 3.51119 0.046895 7.14732 3.25777 -2.08713 2.26196 1 -7.34701 0.0125019 4
710 1 0.00865172 0.0134031 7.14563 0.615456 -1.56218 -5.01946 1 -7.3849 0.0174367 4
652 1 1.80184 0.00314277 5.35347 0.481453 -1.76436 2.99617 1 -7.30736 0.00766941 4
372 1 4.43442 0.897492 4.51147 1.90215 8.58058 1.37722 1 -7.3073 0.0492596 4
373 1 4.44499 2.71636 6.26769 -8.61144 4.58694 5.44469 1 -7.32177 0.0777047 4
374 1 6.20857 0.88327 6.28038 5.39049 1.05291 -6.86433 1 -7.33094 0.0481042 4
375 1 6.22854 2.71938 4.47011 7.37106 -0.759217 -3.73137 1 -7.29226 0.0428429 4
376 1 7.14008 1.77741 5.37799 -1.61139 5.32856 5.60139 1 -7.33453 0.038818 4
377 1 7.99205 0.863621 4.50539 4.51807 3.59962 2.47634 1 -7.32125 0.0245874 4
378 1 8.04155 2.62935 6.24664 1.49237 4.43088 8.74949 1 -7.36767 0.0612551 4
379 1 5.36721 3.5754 5.34354 -6.5069 -1.64345 -9.07153 1 -7.41024 0.0792556 4
380 1 5.29664 1.80221 7.16692 -5.26608 -3.78952 -6.76591 1 -7.31252 0.0546923 4
381 1 4.43474 0.939214 8.02095 0.562908 -1.10263 -11.2255 1 -7.35613 0.0793867 4
382 1 6.23764 2.62266 8.07883 6.43072 -2.23279 -6.41505 1 -7.30711 0.0544576 4
383 1 8.05812 0.865636 8.03739 -1.02086 5.39927 0.639904 1 -7.33403 0.0190486 4
384 1 7.15145 3.49939 7.16715 2.25632 -0.658114 -3.52017 1 -7.24715 0.0111512 4
665 1 7.11631 -0.0298 7.1608 -2.78591 -1.2628 -3.07367 1 -7.30673 0.0117037 4
386 1 9.7842 0.852955 6.29046 0.127744 0.320789 7.44574 1 -7.27719 0.0345809 4
387 1 9.80025 2.64797 4.46016 -2.71252 -0.20531 -0.486724 1 -7.39261 0.00475337 4
388 1 10.6979 1.76848 5.34782 -1.17419 -2.71135 -1.90194 1 -7.32351 0.0076854 4
389 1 11.6005 0.907564 4.50753 0.295748 -1.01054 5.2409 1 -7.38208 0.0177863 4
390 1 11.597 2.67327 6.25412 -0.811731 0.337661 0.18407 1 -7.28608 0.000502176 4
391 1 8.91607 3.52807 5.37607 2.51293 -4.18569 -2.66142 1 -7.36423 0.0192441 4
392 1 12.4718 3.57139 5.33278 4.76179 2.66052 -1.50013 1 -7.30389 0.0199197 4
393 1 8.93485 1.77446 7.18205 -3.0821 2.20407 -1.84471 1 -7.37061 0.0110545 4
394 1 9.84541 2.63114 8.05596 3.67728 3.31604 1.71858 1 -7.36508 0.0170993 4
395 1 12.489 1.769 7.18231 -4.14272 -0.0063173 -0.195295 1 -7.28981 0.0107059 4
396 1 11.5816 0.89539 8.06181 -0.815677 0.855358 -0.468358 1 -7.36602 0.00100604 4
397 1 10.7412 3.53596 7.16205 4.58284 0.236131 1.5537 1 -7.37787 0.0146097 4
398 1 13.3707 0.882498 6.23147 1.08611 -6.91367 -4.15151 1 -7.29381 0.041213 4
399 1 13.3539 2.60667 4.46274 -8.12198 8.418 0.328603 1 -7.2366 0.0852333 4
400 1 14.274 1.76187 5.35316 3.35139 -6.40338 2.55073 1 -7.40986 0.0365622 4
401 1 15.1751 0.867931 4.48574 1.41736 1.32576 0.251031 1 -7.32223 0.00238362 4
402 1 15.122 2.66533 6.21056 -12.0929 7.53508 2.92421 1 -7.42182 0.131684 4
403 1 16.9072 0.878801 6.21023 3.74999 -4.12521 -0.957787 1 -7.34719 0.0199159 4
404 1 16.926 2.69074 4.41222 -4.55004 3.55767 -1.28152 1 -7.33215 0.0217863 4
405 1 16.0454 3.54013 5.34573 -1.95156 0.523033 1.58193 1 -7.30887 0.00409847 4
406 1 13.4219 2.69891 8.05733 -10.0367 -2.30017 1.62083 1 -7.35655 0.0676287 4
407 1 16.0179 1.82365 7.12568 -2.20726 1.46396 1.18028 1 -7.29891 0.00523349 4
408 1 15.2034 0.90502 8.07329 1.02384 -5.07546 3.21922 1 -7.29985 0.0231368 4
409 1 16.9359 2.62803 8.05117 -8.51984 6.02625 -0.758794 1 -7.32977 0.0681426 4
410 1 14.2452 3.56838 7.12359 3.04529 -0.849883 -3.44704 1 -7.36528 0.0136175 4
412 1 17.8032 1.76404 5.3462 5.60678 -2.83417 0.505902 1 -7.32054 0.0247256 4
413 1 18.7498 0.872072 4.48396 -3.68019 5.82238 -0.536341 1 -7.33944 0.0297094 4
414 1 18.7239 2.66061 6.26009 -5.01155 2.6391 -3.6789 1 -7.31201 0.0283919 4
415 1 20.5197 0.862823 6.25498 -6.69112 -0.390928 11.076 1 -7.28553 0.10432 4
416 1 20.4648 2.62839 4.43276 0.408132 -1.41864 2.21325 1 -7.31455 0.00440529 4
417 1 19.6283 3.55272 5.37653 0.24147 -6.43039 -5.67801 1 -7.3146 0.0458404 4
418 1 19.6017 1.80316 7.15037 -4.41219 -1.48368 -3.11625 1 -7.33191 0.0195316 4
419 1 18.7424 0.877911 8.02389 5.64984 -2.52035 -0.196177 1 -7.27023 0.023846 4
420 1 20.499 2.70194 8.00938 -5.56242 -3.39942 -7.70362 1 -7.3339 0.0633893 4
421 1 17.8546 3.55518 7.18284 2.13962 -10.2819 2.58515 1 -7.31048 0.0728106 4
423 1 0.890022 4.43188 4.44864 -0.0335629 4.71657 -4.39034 1 -7.37308 0.0258445 4
424 1 0.862545 6.18944 6.23811 9.69129 -9.83025 -2.01274 1 -7.39643 0.121128 4
425 1 2.67373 4.48349 6.2678 -2.72731 -3.36478 -2.86045 1 -7.27484 0.0167695 4
426 1 2.68448 6.26911 4.4594 0.00857956 9.24717 -1.67567 1 -7.36187 0.0549715 4
427 1 3.58617 5.35852 5.35332 4.84394 -0.334998 2.48239 1 -7.30729 0.0185099 4
428 1 1.75258 7.09831 5.32054 2.81485 1.59959 0.560028 1 -7.29332 0.00671953 4
429 1 0.905347 7.99787 4.44161 1.89267 -2.69702 7.71641 1 -7.35879 0.0438182 4
430 1 2.62152 8.06859 6.25771 9.86074 3.64498 2.08555 1 -7.22959 0.0714979 4
431 1 1.73085 5.32997 7.10674 -1.46125 1.47751 -1.52648 1 -7.3503 0.00413816 4
432 1 0.890133 4.46998 8.02674 -3.64478 -4.45457 -1.00709 1 -7.31782 0.0212508 4
433 1 2.70548 6.1957 8.03345 -5.39092 -0.642288 -7.1081 1 -7.23762 0.0497938 4
434 1 0.922687 8.0327 8.03778 -1.69408 -0.660223 4.54863 1 -7.34087 0.0149356 4