ITEM: TIMESTEP
49125800
ITEM: NUMBER OF ATOMS
3060
ITEM: BOX BOUNDS pp pp mm
0.0000000000000000e+00 2.1394294200000001e+01
0.0000000000000000e+00 2.1394294200000001e+01
-5.3491084073550004e-03 5.3485735499999997e+01
ITEM: ATOMS id type x y z vx vy vz c_clusts c_atom_pe c_atom_ke c_atom_coord
1 1 0 0 0 0 0 0 1 -3.32799 0 2
2 1 1.78286 1.78286 0 0 0 0 1 -3.32104 0 2
3 1 0.891429 0.891429 0.891429 0 0 0 1 -7.02013 0 4
4 1 0.885539 2.74032 2.67874 -4.61531 -5.60255 4.10586 1 -7.28788 0.0432883 4
5 1 2.65457 0.903332 2.62879 -9.01399 -6.27017 -4.52769 1 -7.3376 0.0878038 4
6 1 2.67429 2.67429 0.891429 0 0 0 1 -7.0322 0 4
7 1 3.56572 0 0 0 0 0 1 -3.347 0 2
8 1 3.56606 1.78179 1.77758 -2.62242 -5.3071 -9.17387 1 -7.37231 0.0741946 4
9 1 0 3.56572 0 0 0 0 1 -3.31735 0 2
10 1 1.77422 3.55419 1.79257 -4.46452 -3.15046 -3.13472 1 -7.35568 0.0247003 4
11 1 3.56572 3.56572 0 0 0 0 1 -3.3382 0 2
12 1 1.82954 1.80676 3.58699 4.20136 3.82713 1.60074 1 -7.27239 0.0216982 4
13 1 3.60931 3.61607 3.58836 4.56935 -4.05674 4.28809 1 -7.31898 0.034684 4
292 1 1.79587 0.00968006 1.77892 5.33631 -0.933388 -3.27153 1 -7.40762 0.0249284 4
56 1 0.0145696 3.62042 3.5823 3.43823 0.221268 -0.177195 1 -7.34453 0.00740797 4
55 1 0.00722523 1.8036 1.78599 -4.55099 2.8586 -1.60851 1 -7.35299 0.019588 4
291 1 3.55779 -0.00594861 3.53651 0.267708 -9.72172 1.01033 1 -7.30076 0.0595065 4
350 1 0.00384548 0.013498 3.53926 0.686183 3.90626 -4.77185 1 -7.31926 0.0239636 4
14 1 5.34857 1.78286 0 0 0 0 1 -3.32037 0 2
15 1 4.45714 0.891429 0.891429 0 0 0 1 -7.01604 0 4
16 1 4.46828 2.62755 2.72278 -3.50673 -9.61208 -0.190351 1 -7.3019 0.0651839 4
17 1 6.25921 0.879352 2.69109 -1.02892 3.14917 1.16766 1 -7.39004 0.00768037 4
18 1 6.24 2.67429 0.891429 0 0 0 1 -6.98772 0 4
19 1 7.13143 0 0 0 0 0 1 -3.31475 0 2
20 1 7.15501 1.7666 1.74996 -4.38882 -1.50078 2.95033 1 -7.30655 0.0188088 4
21 1 8.02286 0.891429 0.891429 0 0 0 1 -7.04808 0 4
22 1 7.98464 2.6483 2.66261 5.98203 7.15772 -2.09524 1 -7.33505 0.0568945 4
23 1 5.34978 3.56248 1.82375 -1.55942 -5.60798 5.2135 1 -7.27015 0.0380065 4
24 1 7.13143 3.56572 0 0 0 0 1 -3.33721 0 2
25 1 5.40707 1.73646 3.55487 1.38529 -3.1422 4.08329 1 -7.34354 0.0177178 4
26 1 7.1231 3.52928 3.52597 -1.3092 -3.06679 0.413968 1 -7.34557 0.00702755 4
306 1 7.21177 0.000903525 3.51153 -3.66905 -10.2714 4.50051 1 -7.30206 0.0866536 4
28 1 8.91429 1.78286 0 0 0 0 1 -3.33852 0 2
29 1 9.83377 0.835816 2.66018 -1.85727 -6.57669 1.82157 1 -7.32447 0.031134 4
30 1 9.80572 2.67429 0.891429 0 0 0 1 -7.00972 0 4
31 1 10.6971 0 0 0 0 0 1 -3.34427 0 2
32 1 10.6753 1.75123 1.7945 -5.73486 1.72109 -3.5363 1 -7.34813 0.0300981 4
33 1 12.48 1.78286 0 0 0 0 1 -3.33334 0 2
34 1 11.5886 0.891429 0.891429 0 0 0 1 -7.00607 0 4
35 1 11.5691 2.68356 2.66895 0.683565 3.98235 0.565286 1 -7.34316 0.0103609 4
36 1 8.95063 3.54496 1.79188 3.64906 -5.2567 1.38778 1 -7.30326 0.0266862 4
37 1 10.6971 3.56572 0 0 0 0 1 -3.35143 0 2
38 1 12.4895 3.56039 1.77609 -1.39587 -4.64007 -8.11635 1 -7.40189 0.0556162 4
39 1 8.9105 1.76076 3.56497 -4.85753 -2.87579 8.42236 1 -7.22829 0.0639866 4
40 1 12.4558 1.8019 3.54659 8.7092 -3.89515 -11.5633 1 -7.34726 0.13988 4
41 1 10.6884 3.55037 3.57943 5.82266 4.29304 0.707154 1 -7.35187 0.032885 4
319 1 10.7186 -0.0497633 3.57246 -6.74805 -7.5856 -1.53932 1 -7.36001 0.0656329 4
42 1 13.3908 0.887765 2.67864 -5.10772 1.20948 1.31501 1 -7.32919 0.0182252 4
43 1 13.3714 2.67429 0.891429 0 0 0 1 -7.03122 0 4
44 1 14.2629 0 0 0 0 0 1 -3.30803 0 2
45 1 14.2453 1.76264 1.76712 1.79143 -6.76467 -0.36195 1 -7.31893 0.0305617 4
46 1 16.0457 1.78286 0 0 0 0 1 -3.33362 0 2
47 1 15.1543 0.891429 0.891429 0 0 0 1 -7.01255 0 4
48 1 15.1579 2.68814 2.69951 -5.51222 -2.74101 -1.37916 1 -7.33091 0.0247724 4
49 1 16.8969 0.908361 2.67491 -0.798438 1.15711 -2.12268 1 -7.35399 0.00403469 4
50 1 16.9371 2.67429 0.891429 0 0 0 1 -7.01232 0 4
51 1 14.2629 3.56572 0 0 0 0 1 -3.33439 0 2
52 1 16.0342 3.56459 1.76982 -6.86268 5.46776 -1.92617 1 -7.35161 0.0502317 4
53 1 16.0026 1.80939 3.55491 -4.38324 -7.02847 -0.48888 1 -7.37232 0.0428548 4
54 1 14.2807 3.58983 3.54996 0.980683 -1.61903 -3.38079 1 -7.35667 0.00934434 4
336 1 14.2982 -0.024962 3.54052 -4.06567 -2.03342 -5.78023 1 -7.39993 0.033658 4
57 1 17.8286 0 0 0 0 0 1 -3.33414 0 2
58 1 17.7988 1.80608 1.77614 -0.386907 5.98034 3.57489 1 -7.32112 0.0303085 4
59 1 19.6114 1.78286 0 0 0 0 1 -3.33773 0 2
60 1 18.72 0.891429 0.891429 0 0 0 1 -7.01147 0 4
61 1 18.7357 2.71613 2.67795 13.3956 -3.03969 0.164809 1 -7.31151 0.117457 4
62 1 20.514 0.940094 2.63485 0.659615 1.83135 0.405493 1 -7.35077 0.00246068 4
63 1 20.5029 2.67429 0.891429 0 0 0 1 -7.00208 0 4
64 1 17.8286 3.56572 0 0 0 0 1 -3.34036 0 2
65 1 19.6352 3.57208 1.80012 5.2433 -0.178923 -0.296987 1 -7.38078 0.0171867 4
66 1 19.6209 1.82461 3.56954 -2.8789 -4.71045 2.54629 1 -7.38339 0.0230049 4
67 1 17.8657 3.56304 3.58698 2.33393 -1.71741 0.591544 1 -7.33863 0.00544413 4
68 1 19.6238 0.0193087 1.76133 -2.20862 2.27498 -2.1201 1 -7.35999 0.00905528 4
349 1 17.8372 0.0480948 3.54238 -1.51694 -3.66196 -0.415434 1 -7.29207 0.00988638 4
69 1 1.78286 5.34857 0 0 0 0 1 -3.33734 0 2
70 1 0.891429 4.45714 0.891429 0 0 0 1 -7.01979 0 4
71 1 0.873943 6.17064 2.62805 6.60497 -6.16113 2.91716 1 -7.29335 0.0560774 4
72 1 2.67404 4.39458 2.70544 4.46753 -5.84385 8.23466 1 -7.37539 0.0758857 4
73 1 2.67429 6.24 0.891429 0 0 0 1 -7.03039 0 4
74 1 3.53384 5.34858 1.80829 3.2111 -3.02109 -0.992159 1 -7.30968 0.0127115 4
75 1 0 7.13143 0 0 0 0 1 -3.34115 0 2
76 1 1.77712 7.12322 1.74889 -4.72197 -5.50111 -6.87435 1 -7.32675 0.062128 4
77 1 0.891429 8.02286 0.891429 0 0 0 1 -7.04327 0 4
78 1 2.65814 8.02335 2.67103 3.89175 6.84406 -4.5075 1 -7.33505 0.0512284 4
79 1 3.56572 7.13143 0 0 0 0 1 -3.33898 0 2
80 1 1.77688 5.29537 3.59134 -2.35532 -4.7225 -1.68385 1 -7.26041 0.0190991 4
81 1 3.57682 7.13174 3.56759 -3.27273 3.4361 4.31439 1 -7.33007 0.0256013 4
128 1 -0.0112968 5.32103 1.7666 -4.28049 -1.8248 -2.77595 1 -7.39587 0.0182734 4
82 1 0.0347315 7.09754 3.56136 -7.35723 -3.30184 1.7592 1 -7.22499 0.0424032 4
83 1 5.34857 5.34857 0 0 0 0 1 -3.35625 0 2
84 1 4.45714 4.45714 0.891429 0 0 0 1 -6.94575 0 4
85 1 4.48361 6.21257 2.67496 -0.963145 -9.80911 -2.31983 1 -7.32999 0.0638161 4
86 1 6.2596 4.4777 2.65592 -0.543166 2.87171 -2.85093 1 -7.33442 0.0103756 4
87 1 6.24 6.24 0.891429 0 0 0 1 -7.02742 0 4
88 1 7.14606 5.3804 1.7647 2.74793 6.1739 -8.27619 1 -7.38203 0.0710583 4
89 1 8.02286 4.45714 0.891429 0 0 0 1 -6.97415 0 4
90 1 8.02716 6.26512 2.65084 5.14978 -1.52928 8.55336 1 -7.40305 0.0634992 4
91 1 5.36468 7.13545 1.77641 -4.99328 -2.2943 -0.750284 1 -7.35224 0.0191456 4
92 1 4.45714 8.02286 0.891429 0 0 0 1 -7.01605 0 4
93 1 6.22544 8.02573 2.71694 -14.9063 2.1609 -4.38512 1 -7.27791 0.153176 4
94 1 7.13143 7.13143 0 0 0 0 1 -3.32719 0 2
95 1 8.02286 8.02286 0.891429 0 0 0 1 -7.03552 0 4
96 1 5.38138 5.36308 3.59146 5.66497 6.89823 -8.80958 1 -7.33901 0.097899 4
97 1 7.18679 7.12938 3.55219 1.54038 -1.87756 2.47058 1 -7.32755 0.00747021 4
98 1 8.91429 5.34857 0 0 0 0 1 -3.3221 0 2
99 1 9.82977 4.43131 2.66319 -5.95226 -1.30938 1.42359 1 -7.37192 0.0243807 4
100 1 9.80572 6.24 0.891429 0 0 0 1 -7.00608 0 4
101 1 10.734 5.32113 1.79147 -3.27741 -4.15162 -1.60813 1 -7.35799 0.0190235 4
102 1 12.48 5.34857 0 0 0 0 1 -3.3392 0 2
103 1 11.5886 4.45714 0.891429 0 0 0 1 -7.01804 0 4
104 1 11.6206 6.23845 2.67433 2.14525 -0.125273 2.47158 1 -7.40012 0.00667647 4
105 1 8.96143 7.13699 1.73235 1.42217 -1.78656 3.29683 1 -7.32454 0.0100108 4
106 1 9.80392 8.01502 2.65991 9.23706 6.53773 -5.27345 1 -7.37253 0.0970204 4
107 1 10.6971 7.13143 0 0 0 0 1 -3.30044 0 2
108 1 12.496 7.093 1.81085 1.87805 -6.76069 6.32731 1 -7.35294 0.0555633 4
109 1 11.5886 8.02286 0.891429 0 0 0 1 -6.97108 0 4
110 1 8.89399 5.33425 3.49822 2.12301 -4.74927 1.86215 1 -7.24375 0.0190029 4
111 1 12.474 5.35884 3.58483 -5.41786 3.50441 3.77301 1 -7.30723 0.0347748 4
112 1 10.7019 7.12211 3.56821 1.65118 8.737 4.22066 1 -7.37315 0.0602978 4
113 1 13.379 4.40869 2.65763 2.99755 -7.95269 4.97123 1 -7.33194 0.0603403 4
114 1 13.3714 6.24 0.891429 0 0 0 1 -7.01418 0 4
115 1 14.2481 5.35342 1.80093 -8.81558 7.11561 -10.8947 1 -7.27429 0.153764 4
116 1 16.0457 5.34857 0 0 0 0 1 -3.33812 0 2
117 1 15.1543 4.45714 0.891429 0 0 0 1 -6.98117 0 4
118 1 15.2021 6.254 2.63788 1.29668 6.88357 0.998838 1 -7.25104 0.0311603 4
119 1 16.9678 4.45399 2.63268 4.38859 -3.45591 3.06189 1 -7.28057 0.0252569 4
120 1 16.9371 6.24 0.891429 0 0 0 1 -7.01899 0 4
121 1 13.3871 7.98332 2.69534 0.305089 0.725433 2.99207 1 -7.37122 0.00595776 4
122 1 14.2629 7.13143 0 0 0 0 1 -3.35989 0 2
123 1 16.0771 7.14851 1.75193 2.7212 -4.50528 -4.58589 1 -7.33726 0.0303326 4
124 1 15.1543 8.02286 0.891429 0 0 0 1 -7.02356 0 4
125 1 16.9546 8.06196 2.73545 -1.98314 -4.4804 -1.70527 1 -7.25815 0.0167525 4
126 1 16.0518 5.31985 3.57719 -9.85404 6.2617 1.36077 1 -7.28021 0.085996 4
127 1 14.2595 7.10909 3.55775 0.225366 -1.95388 5.79824 1 -7.32257 0.0233335 4
129 1 17.8263 5.32795 1.77629 0.649682 -0.999666 -4.02695 1 -7.40186 0.0109782 4
130 1 19.6114 5.34857 0 0 0 0 1 -3.30953 0 2
131 1 18.72 4.45714 0.891429 0 0 0 1 -6.99784 0 4
132 1 18.7007 6.24599 2.65446 2.5527 -2.06513 -3.51464 1 -7.38888 0.0143991 4
133 1 20.5052 4.46657 2.65279 -3.77136 -2.92229 -5.78214 1 -7.34131 0.0349779 4
134 1 20.5029 6.24 0.891429 0 0 0 1 -6.99904 0 4
135 1 17.8286 7.13143 0 0 0 0 1 -3.32526 0 2
136 1 19.5607 7.11711 1.7808 -1.79438 -4.98645 5.44984 1 -7.33008 0.0359671 4
137 1 18.72 8.02286 0.891429 0 0 0 1 -7.01927 0 4
138 1 20.5029 8.04193 2.66037 -5.855 0.877236 -1.54899 1 -7.28684 0.0233098 4
139 1 19.6106 5.34958 3.58774 3.00269 -1.92889 3.55624 1 -7.26729 0.0157994 4
140 1 17.8507 7.13753 3.58406 7.75106 5.32192 5.30786 1 -7.35348 0.0725594 4
141 1 1.78286 8.91429 0 0 0 0 1 -3.34062 0 2
142 1 0.899635 9.82429 2.62179 0.547081 -2.44943 0.835137 1 -7.29793 0.00435477 4
143 1 2.67429 9.80572 0.891429 0 0 0 1 -7.00533 0 4
144 1 3.54667 8.92217 1.76241 3.34891 -4.36435 3.02049 1 -7.31609 0.024515 4
145 1 0 10.6971 0 0 0 0 1 -3.3287 0 2
146 1 1.80106 10.7024 1.81005 -2.89645 2.42732 0.0479417 1 -7.36562 0.0088905 4
147 1 1.78286 12.48 0 0 0 0 1 -3.31702 0 2
148 1 0.891429 11.5886 0.891429 0 0 0 1 -7.00283 0 4
149 1 2.6971 11.5747 2.65624 -6.1474 -0.985685 -1.99726 1 -7.35293 0.0266095 4
150 1 3.56572 10.6971 0 0 0 0 1 -3.35228 0 2
151 1 3.62917 12.4561 1.77096 -5.00665 -6.1632 -3.40549 1 -7.32909 0.0464634 4
152 1 1.76407 8.91173 3.5937 6.30576 4.56764 2.64298 1 -7.25571 0.042083 4
153 1 1.85806 12.4823 3.53804 5.76011 0.383887 -1.80084 1 -7.3731 0.0227617 4
154 1 3.58536 10.6729 3.55115 -1.6074 0.784072 -15.4556 1 -7.28627 0.150673 4
205 1 0.021523 8.88733 1.77539 7.79864 -5.71945 -1.6322 1 -7.39198 0.0598743 4
204 1 0.0274687 12.5029 1.75508 12.8013 -1.76385 -1.01066 1 -7.32847 0.104571 4
155 1 5.34857 8.91429 0 0 0 0 1 -3.3317 0 2
156 1 4.48773 9.8287 2.65278 -3.02355 2.96498 -2.72709 1 -7.30322 0.0157909 4
157 1 6.24 9.80572 0.891429 0 0 0 1 -6.98352 0 4
158 1 7.15822 8.91878 1.77257 -11.8651 -5.5313 -2.71291 1 -7.31663 0.11125 4
159 1 7.98696 9.82757 2.68152 -4.61319 -3.95801 -6.51113 1 -7.38488 0.0493846 4
160 1 5.34412 10.7317 1.7702 2.58587 -0.818814 3.83562 1 -7.38116 0.0137364 4
161 1 5.34857 12.48 0 0 0 0 1 -3.31755 0 2
162 1 4.45714 11.5886 0.891429 0 0 0 1 -7.04606 0 4
163 1 6.24313 11.5828 2.6785 -0.480134 2.98169 -0.696878 1 -7.37139 0.00597943 4
164 1 7.13143 10.6971 0 0 0 0 1 -3.32067 0 2
165 1 7.1377 12.4771 1.76971 -4.74418 -3.84465 5.04782 1 -7.30962 0.0390691 4
166 1 8.02286 11.5886 0.891429 0 0 0 1 -7.02825 0 4
167 1 5.33269 8.89166 3.58316 -5.59102 -4.90673 2.84871 1 -7.34468 0.0394933 4
168 1 5.39894 12.4962 3.55055 -7.59037 0.395787 -0.340946 1 -7.35488 0.0360301 4
169 1 7.11776 10.6703 3.5398 -0.183185 2.41627 -0.443156 1 -7.34524 0.00377707 4
170 1 8.91429 8.91429 0 0 0 0 1 -3.29723 0 2
171 1 9.80572 9.80572 0.891429 0 0 0 1 -6.99915 0 4
172 1 10.6627 8.92224 1.75106 -2.44761 8.34433 -2.88167 1 -7.32952 0.0522357 4
173 1 12.48 8.91429 0 0 0 0 1 -3.34182 0 2
174 1 11.5798 9.79747 2.66266 6.44431 3.37808 5.5277 1 -7.27968 0.0519701 4
175 1 8.86916 10.7388 1.78173 -4.07851 -1.94089 0.444696 1 -7.34305 0.0128214 4
176 1 8.91429 12.48 0 0 0 0 1 -3.34506 0 2
177 1 9.78175 11.6015 2.65143 7.06894 0.363149 -2.93906 1 -7.39223 0.0365613 4
178 1 10.6971 10.6971 0 0 0 0 1 -3.33097 0 2
179 1 10.6875 12.4566 1.80553 4.83126 -2.61918 -0.384892 1 -7.34321 0.0188902 4
180 1 12.4991 10.6867 1.78517 6.34538 1.51267 -1.14655 1 -7.31565 0.0273037 4
181 1 12.48 12.48 0 0 0 0 1 -3.34079 0 2
182 1 11.5886 11.5886 0.891429 0 0 0 1 -6.98589 0 4
183 1 8.91585 8.93721 3.52635 -1.52049 -0.718205 4.08791 1 -7.35257 0.0121614 4
184 1 12.502 8.858 3.54065 5.41443 7.30676 10.6584 1 -7.30239 0.122187 4
185 1 8.92276 12.496 3.56683 -0.253086 4.41984 -7.17265 1 -7.30334 0.0442209 4
186 1 10.6837 10.7389 3.56246 4.86806 -1.67985 -3.80836 1 -7.28816 0.0255341 4
187 1 12.5011 12.4849 3.58896 -0.322569 14.4271 2.41854 1 -7.40961 0.133258 4
188 1 13.3714 9.80572 0.891429 0 0 0 1 -7.02376 0 4
189 1 14.2899 8.90065 1.79619 0.961847 3.18539 0.901858 1 -7.34812 0.00739766 4
190 1 16.0457 8.91429 0 0 0 0 1 -3.34698 0 2
191 1 15.1712 9.75859 2.71177 -3.49968 0.954001 -3.99226 1 -7.25298 0.0181101 4
192 1 16.9371 9.80572 0.891429 0 0 0 1 -6.98004 0 4
193 1 13.3876 11.5952 2.70446 -2.36844 2.73669 -1.88355 1 -7.36333 0.0103614 4
194 1 14.2629 10.6971 0 0 0 0 1 -3.35185 0 2
195 1 14.2858 12.4662 1.78415 -3.55928 -0.250051 -7.45771 1 -7.32751 0.0425419 4
196 1 16.0869 10.7554 1.77152 -5.5796 0.720846 -2.89725 1 -7.24473 0.0249254 4
197 1 16.0457 12.48 0 0 0 0 1 -3.31607 0 2
198 1 15.1543 11.5886 0.891429 0 0 0 1 -7.05417 0 4
199 1 16.937 11.6093 2.69885 1.71405 -9.10282 7.24438 1 -7.39302 0.0860693 4
200 1 16.068 8.86633 3.57314 -4.43786 -6.79562 0.759833 1 -7.38171 0.0413617 4
201 1 14.2632 10.689 3.538 8.23626 0.377105 -2.31194 1 -7.25063 0.0456383 4
202 1 16.0706 12.4796 3.59158 5.66871 -2.33676 -0.0993684 1 -7.35252 0.0234061 4
203 1 21.4534 10.7563 3.53463 6.97327 0.319011 2.22612 1 -7.28141 0.0334143 4
206 1 17.8561 8.93573 1.80887 4.73094 4.41195 -2.5963 1 -7.34757 0.0302424 4
207 1 19.6114 8.91429 0 0 0 0 1 -3.35216 0 2
208 1 18.7111 9.82697 2.70276 -1.91188 -2.91 8.74986 1 -7.31465 0.0551988 4
209 1 20.5029 9.80572 0.891429 0 0 0 1 -6.99628 0 4
210 1 17.8286 10.6971 0 0 0 0 1 -3.31921 0 2
211 1 17.8126 12.4926 1.8134 0.472167 2.68639 -4.92586 1 -7.34244 0.0197332 4
212 1 19.6709 10.7225 1.77521 3.23005 -1.95667 0.324396 1 -7.27681 0.00894238 4
213 1 19.6114 12.48 0 0 0 0 1 -3.30576 0 2
214 1 18.72 11.5886 0.891429 0 0 0 1 -6.95828 0 4
215 1 20.5473 11.6464 2.68585 -2.45559 4.987 4.72147 1 -7.33371 0.0331083 4
216 1 19.6048 8.96233 3.57583 5.90549 -2.48457 4.68308 1 -7.34613 0.0391999 4
217 1 17.8686 10.6982 3.57784 -4.10666 -0.898775 2.02466 1 -7.35314 0.0135513 4
218 1 19.6151 12.4932 3.56335 -3.67726 -2.60938 7.84555 1 -7.41897 0.0509666 4
219 1 0.93004 13.3876 2.66062 0.661018 0.803031 1.01827 1 -7.3346 0.00131871 4
220 1 2.67429 13.3714 0.891429 0 0 0 1 -6.9923 0 4
221 1 0 14.2629 0 0 0 0 1 -3.3244 0 2
222 1 1.78312 14.256 1.76239 4.47322 -4.05146 -1.2974 1 -7.33944 0.0237189 4
223 1 1.78286 16.0457 0 0 0 0 1 -3.32868 0 2
224 1 0.891429 15.1543 0.891429 0 0 0 1 -7.04089 0 4
225 1 0.872249 16.9388 2.66027 -1.83528 -4.00299 4.1993 1 -7.31979 0.0230461 4
226 1 2.66761 15.201 2.66597 2.98801 -7.22623 7.09751 1 -7.3001 0.0694138 4
227 1 2.67429 16.9371 0.891429 0 0 0 1 -7.023 0 4
228 1 3.56572 14.2629 0 0 0 0 1 -3.31501 0 2
229 1 3.54247 16.0842 1.76836 -3.15942 4.23628 -7.08525 1 -7.33176 0.0486294 4
230 1 1.76676 16.071 3.54512 1.20673 -2.87205 0.881655 1 -7.31784 0.00652439 4
231 1 3.58198 14.2408 3.53689 -2.45991 -8.89755 -4.29195 1 -7.33678 0.0645073 4
233 1 0.00165081 16.0259 1.74474 5.61077 3.34795 0.886365 1 -7.34898 0.0270601 4
232 1 0.00694968 14.2513 3.57072 -2.84622 -5.83354 -8.51899 1 -7.35041 0.071395 4
234 1 4.46288 13.3418 2.66568 5.55232 2.2922 1.59333 1 -7.38649 0.0240388 4
235 1 6.24 13.3714 0.891429 0 0 0 1 -6.99056 0 4
236 1 8.05186 13.406 2.6822 -6.93162 1.46219 0.523398 1 -7.31604 0.0314072 4
237 1 5.31807 14.2767 1.77097 4.7902 -0.226769 -4.31377 1 -7.34868 0.0258967 4
238 1 5.34857 16.0457 0 0 0 0 1 -3.34545 0 2
239 1 4.45714 15.1543 0.891429 0 0 0 1 -7.04019 0 4
240 1 4.43306 16.9896 2.71579 4.66736 -2.67066 -5.5097 1 -7.33273 0.0368934 4
241 1 6.23608 15.1561 2.67514 -6.45108 2.17164 5.09129 1 -7.33424 0.0449726 4
242 1 6.24 16.9371 0.891429 0 0 0 1 -7.01236 0 4
243 1 7.13143 14.2629 0 0 0 0 1 -3.34302 0 2
244 1 7.16505 16.0617 1.78069 -3.33229 1.47376 -4.0419 1 -7.30492 0.018432 4
245 1 8.02286 15.1543 0.891429 0 0 0 1 -6.98905 0 4
246 1 8.03526 16.9355 2.72448 8.4612 1.01874 1.03087 1 -7.36434 0.0458681 4
247 1 5.34724 16.0571 3.58342 7.27587 7.31497 -1.80807 1 -7.28804 0.0682903 4
248 1 7.13235 14.3065 3.52849 1.94158 -2.83379 1.36759 1 -7.37684 0.00850884 4
249 1 9.80572 13.3714 0.891429 0 0 0 1 -7.01373 0 4
250 1 11.6293 13.3537 2.66744 2.60311 -7.01852 6.52084 1 -7.35121 0.0613445 4
251 1 8.96628 14.2496 1.78469 -4.2541 -0.015319 -3.45088 1 -7.3097 0.0186766 4
252 1 8.91429 16.0457 0 0 0 0 1 -3.31651 0 2
253 1 9.85517 15.1875 2.69092 -3.95418 -0.938845 3.71344 1 -7.38063 0.0188637 4
254 1 9.80572 16.9371 0.891429 0 0 0 1 -7.04195 0 4
255 1 10.6971 14.2629 0 0 0 0 1 -3.34576 0 2
256 1 10.6919 16.06 1.78142 -9.40072 -0.691429 -2.14305 1 -7.28896 0.0581622 4
257 1 12.4695 14.3012 1.77241 -0.125521 1.38086 5.47583 1 -7.28832 0.0198599 4
258 1 12.48 16.0457 0 0 0 0 1 -3.32208 0 2
259 1 11.5886 15.1543 0.891429 0 0 0 1 -7.02807 0 4
260 1 11.6582 16.945 2.7031 -8.39705 -1.25064 2.61573 1 -7.30584 0.0491198 4
261 1 8.95899 16.079 3.5834 -6.85249 -7.49851 -8.86075 1 -7.37899 0.113093 4
262 1 10.7538 14.3014 3.5136 -2.68327 -3.35754 4.6566 1 -7.22099 0.0249947 4
263 1 12.459 16.0795 3.59645 3.90495 8.02599 0.0552686 1 -7.27376 0.0495876 4
264 1 13.3714 13.3714 0.891429 0 0 0 1 -6.96511 0 4
265 1 15.1493 13.4085 2.68994 -1.26756 4.43629 10.8232 1 -7.31972 0.0861613 4
266 1 16.9371 13.3714 0.891429 0 0 0 1 -7.03074 0 4
267 1 13.3844 15.194 2.70108 2.76233 -0.0820671 0.181115 1 -7.3279 0.00477402 4
268 1 13.3714 16.9371 0.891429 0 0 0 1 -7.02526 0 4
269 1 14.2629 14.2629 0 0 0 0 1 -3.31057 0 2
270 1 14.2694 16.0294 1.744 -6.58993 -0.471916 4.91282 1 -7.35472 0.0421916 4
271 1 16.0462 14.2486 1.76456 -4.17674 -1.29891 4.48422 1 -7.35003 0.0244243 4
272 1 16.0457 16.0457 0 0 0 0 1 -3.339 0 2
273 1 15.1543 15.1543 0.891429 0 0 0 1 -7.02712 0 4
274 1 15.1968 16.9276 2.60633 -1.45321 -3.41378 6.82829 1 -7.32275 0.0375891 4
275 1 16.9735 15.1417 2.64846 -6.06337 6.22904 5.161 1 -7.28243 0.0636128 4
276 1 16.9371 16.9371 0.891429 0 0 0 1 -7.03954 0 4
277 1 14.2523 14.2684 3.57073 5.68504 2.16109 -3.48317 1 -7.37951 0.0305751 4
278 1 16.051 16.0446 3.53213 -0.562369 -1.25546 -3.52072 1 -7.3001 0.00889318 4
279 1 18.7105 13.3339 2.6724 -5.53998 -7.84912 -1.58266 1 -7.368 0.059009 4
280 1 20.5029 13.3714 0.891429 0 0 0 1 -7.03161 0 4
281 1 17.8286 14.2629 0 0 0 0 1 -3.3154 0 2
282 1 17.7939 16.059 1.77846 6.4824 6.64754 3.22445 1 -7.32755 0.0601316 4
283 1 19.5755 14.2114 1.77496 1.2067 -9.29285 0.767363 1 -7.33268 0.0550238 4
284 1 19.6114 16.0457 0 0 0 0 1 -3.33148 0 2
285 1 18.72 15.1543 0.891429 0 0 0 1 -6.97356 0 4
286 1 18.7081 16.9043 2.71763 2.92166 4.09593 3.0729 1 -7.29952 0.0216327 4
287 1 20.4702 15.1417 2.68949 6.39052 -3.94262 2.1617 1 -7.2775 0.0380028 4
288 1 20.5029 16.9371 0.891429 0 0 0 1 -7.02833 0 4
289 1 17.8534 14.2654 3.57475 -2.50391 -1.02167 2.32475 1 -7.40704 0.0079159 4
290 1 19.6244 15.9836 3.5781 -3.29698 0.376794 6.88612 1 -7.35197 0.0363688 4
293 1 0 17.8286 0 0 0 0 1 -3.34829 0 2
294 1 1.75191 17.8243 1.77787 -1.0328 5.16645 -4.70753 1 -7.32758 0.0310713 4
295 1 1.78286 19.6114 0 0 0 0 1 -3.33802 0 2
296 1 0.891429 18.72 0.891429 0 0 0 1 -7.00577 0 4
297 1 0.925628 20.5005 2.6643 2.70611 -5.52292 -4.22001 1 -7.33715 0.0346281 4
298 1 2.64515 18.7325 2.69446 6.3136 3.77841 7.6302 1 -7.25314 0.0699345 4
299 1 2.67429 20.5029 0.891429 0 0 0 1 -7.03604 0 4
300 1 3.56572 17.8286 0 0 0 0 1 -3.32937 0 2
301 1 3.51312 19.6198 1.76958 0.232294 7.76294 9.44302 1 -7.33223 0.0930451 4
302 1 1.74248 19.6538 3.63897 -0.139884 2.25439 6.45215 1 -7.31705 0.0290872 4
303 1 3.56586 17.8443 3.60066 -1.23685 4.99929 7.32431 1 -7.35769 0.0498988 4
305 1 0.0362197 19.6115 1.81097 -7.10537 1.82325 -7.60126 1 -7.31699 0.0694564 4
27 1 5.38686 21.4142 1.77464 0.701012 0.0808545 -0.725146 1 -7.31363 0.000637235 4
307 1 5.36462 17.8235 1.82513 1.72749 -9.11699 -2.23761 1 -7.34005 0.0567097 4
308 1 5.34857 19.6114 0 0 0 0 1 -3.34047 0 2
309 1 4.45714 18.72 0.891429 0 0 0 1 -6.95445 0 4
310 1 4.44831 20.4786 2.67285 2.91601 4.43059 -7.38883 1 -7.25722 0.0514921 4
311 1 6.2347 18.6896 2.66713 1.66991 -1.71532 0.90578 1 -7.39364 0.00407773 4
312 1 6.24 20.5029 0.891429 0 0 0 1 -7.01416 0 4
313 1 7.13143 17.8286 0 0 0 0 1 -3.32237 0 2
314 1 7.14134 19.5819 1.76445 -3.52304 -3.79019 -2.71469 1 -7.33958 0.021254 4
315 1 8.02286 18.72 0.891429 0 0 0 1 -7.0401 0 4
316 1 8.04522 20.4802 2.68497 0.283489 -1.33316 7.07607 1 -7.36644 0.0323216 4
317 1 5.40119 19.5809 3.54951 6.52234 1.03208 -2.97882 1 -7.38225 0.0326646 4
318 1 7.11683 17.8252 3.5489 -3.95858 -8.95217 2.9162 1 -7.33578 0.064929 4
320 1 8.89695 21.3643 1.79844 -0.748057 2.66093 0.717754 1 -7.32756 0.00507606 4
321 1 12.4843 21.4121 1.77954 0.206944 -1.61819 -2.91451 1 -7.28361 0.00694363 4
322 1 8.91303 17.8206 1.78173 -9.21787 -2.19103 -3.9482 1 -7.29626 0.0655776 4
323 1 8.91429 19.6114 0 0 0 0 1 -3.32905 0 2
324 1 9.8426 18.6962 2.67644 3.2263 -2.08774 -5.69139 1 -7.31972 0.0293534 4
325 1 9.80572 20.5029 0.891429 0 0 0 1 -7.0242 0 4
326 1 10.6971 17.8286 0 0 0 0 1 -3.32595 0 2
327 1 10.6672 19.622 1.75762 -1.35799 -0.101198 -3.15566 1 -7.36992 0.00735245 4
328 1 12.496 17.8215 1.77561 -2.54215 4.19784 -6.13694 1 -7.37561 0.0384325 4
329 1 12.48 19.6114 0 0 0 0 1 -3.33499 0 2
330 1 11.5886 18.72 0.891429 0 0 0 1 -7.0211 0 4
331 1 11.5491 20.4878 2.69097 -4.27553 2.47733 -0.782911 1 -7.25501 0.0155795 4
332 1 8.9183 19.5527 3.55386 -8.06965 -1.13759 3.81187 1 -7.34201 0.0503815 4
333 1 10.7353 17.8137 3.59932 6.11182 4.23205 0.220688 1 -7.32964 0.0344285 4
334 1 12.5216 19.6069 3.56321 -2.30942 -1.43167 -5.55562 1 -7.30517 0.0238065 4
335 1 16.0508 21.3831 1.76161 0.0290455 0.103287 2.72137 1 -7.36502 0.00461675 4
337 1 13.4067 18.7169 2.68942 2.4092 9.64155 2.63464 1 -7.32313 0.0657936 4
338 1 13.3714 20.5029 0.891429 0 0 0 1 -7.02574 0 4
339 1 14.2629 17.8286 0 0 0 0 1 -3.33593 0 2
340 1 14.2768 19.6286 1.76578 -3.73433 -2.25892 -3.88411 1 -7.3715 0.021246 4
341 1 16.0888 17.8329 1.76297 -4.58991 -1.99561 0.829426 1 -7.3602 0.0160198 4
342 1 16.0457 19.6114 0 0 0 0 1 -3.31155 0 2
343 1 15.1543 18.72 0.891429 0 0 0 1 -7.01952 0 4
344 1 15.1493 20.5109 2.65771 -3.70522 -2.10997 1.08338 1 -7.36918 0.0120466 4
345 1 16.9923 18.6975 2.69148 0.520867 2.26695 2.94455 1 -7.39262 0.00876423 4
346 1 16.9371 20.5029 0.891429 0 0 0 1 -7.05303 0 4
347 1 14.2739 17.7842 3.55604 3.27124 -4.91208 -6.5585 1 -7.30589 0.0484519 4
348 1 16.0571 19.5973 3.56503 5.85203 1.47458 -1.41617 1 -7.32823 0.0239175 4
304 1 21.4166 17.8461 3.59377 -4.49676 -3.15991 -1.4593 1 -7.37699 0.0201264 4
351 1 17.8286 17.8286 0 0 0 0 1 -3.32207 0 2
352 1 17.8346 19.6048 1.80403 1.27772 -0.793997 5.3212 1 -7.32468 0.0190326 4
353 1 19.6105 17.7805 1.77954 -1.40185 5.43227 2.60775 1 -7.31517 0.0238234 4
354 1 19.6114 19.6114 0 0 0 0 1 -3.35297 0 2
355 1 18.72 18.72 0.891429 0 0 0 1 -6.98793 0 4
356 1 18.7665 20.4936 2.69671 1.12388 0.635852 11.4026 1 -7.31505 0.0819648 4
357 1 20.5065 18.6855 2.72414 -0.298434 2.92461 4.34993 1 -7.2759 0.0171567 4
358 1 20.5029 20.5029 0.891429 0 0 0 1 -6.98971 0 4
359 1 17.8557 17.8199 3.57883 4.00438 -5.49805 -0.330179 1 -7.38129 0.0288635 4
360 1 19.6082 19.5802 3.58704 -5.67868 -1.52953 -2.62161 1 -7.33504 0.0258056 4
361 1 0.926803 0.909498 4.4547 3.54 0.515846 -8.82702 1 -7.28984 0.0564627 4
362 1 0.90575 2.71139 6.29191 4.09898 -7.07595 -2.25794 1 -7.3116 0.0447954 4
363 1 2.70236 0.911164 6.29067 -4.49655 5.59796 -4.21084 1 -7.32325 0.0431262 4
364 1 2.74291 2.69719 4.51335 0.118146 15.6753 1.09352 1 -7.30873 0.153692 4
365 1 3.61542 1.77846 5.39362 1.89709 -2.23467 -3.01861 1 -7.38669 0.0110199 4
366 1 1.77201 3.58098 5.36791 -4.32416 -5.87975 1.63987 1 -7.27841 0.0348303 4
367 1 1.8075 1.80787 7.16137 -6.4752 -0.939315 -2.85215 1 -7.37937 0.0317097 4
368 1 0.935815 0.912026 8.07458 -6.81068 -3.29157 2.50982 1 -7.3157 0.0395358 4
369 1 2.70516 2.6511 8.0753 0.520476 5.04596 -6.64805 1 -7.34691 0.0435258 4
370 1 3.57015 3.51894 7.21427 -3.6873 -4.89371 -7.24871 1 -7.39597 0.0560734 4
411 1 0.025063 1.80191 5.37828 -0.318066 2.32353 -5.56282 1 -7.25904 0.0226843 4
371 1 -0.0557023 3.56822 7.20517 0.903474 -1.025 -0.20554 1 -7.2644 0.0011883 4
651 1 3.5799 -0.0276079 7.19808 6.26881 -0.71704 1.78356 1 -7.33478 0.0267601 4
710 1 -0.00889 0.00979877 7.16334 -4.96012 -2.77667 -7.92062 1 -7.34795 0.0591609 4
652 1 1.78788 0.0126899 5.39303 -8.91785 1.86921 -7.21416 1 -7.32303 0.0840687 4
372 1 4.46032 0.869616 4.50078 -4.59064 6.86249 -3.46966 1 -7.2841 0.0499225 4
373 1 4.46157 2.66966 6.34062 -8.10478 1.04222 0.85147 1 -7.3457 0.0420129 4
374 1 6.25742 0.863125 6.22904 4.94467 2.49212 2.17429 1 -7.32929 0.0220264 4
375 1 6.25286 2.64761 4.46792 0.00899481 -5.73938 2.42397 1 -7.31743 0.0241602 4
376 1 7.18375 1.78235 5.39818 -8.52151 -3.27193 0.623444 1 -7.35253 0.0521035 4
377 1 8.0387 0.87047 4.50643 0.522074 -1.51488 -3.59767 1 -7.31393 0.00965426 4
378 1 7.98685 2.6914 6.26259 -4.09571 -1.32041 6.00306 1 -7.36623 0.0339565 4
379 1 5.37327 3.5344 5.37297 2.76812 3.51692 6.09078 1 -7.34257 0.0355584 4
380 1 5.35957 1.74654 7.16167 -4.77088 -1.43159 3.02639 1 -7.32732 0.0211437 4
381 1 4.5038 0.869941 8.07027 -3.94054 -0.553497 -6.07439 1 -7.33508 0.032822 4
382 1 6.27309 2.64458 8.0634 8.91455 2.444 -1.61027 1 -7.28718 0.0547955 4
383 1 7.99277 0.89406 8.05581 1.4173 -4.99573 2.6697 1 -7.35932 0.0212206 4
384 1 7.13449 3.5638 7.16804 0.314366 -3.70525 6.48768 1 -7.34478 0.0348046 4
665 1 7.09209 -0.027896 7.16204 -3.89155 -0.343769 -3.68332 1 -7.28679 0.017944 4
386 1 9.80824 0.880754 6.25857 4.2666 2.75634 0.528486 1 -7.29407 0.0162333 4
387 1 9.80885 2.6544 4.45294 0.438305 4.26702 6.72677 1 -7.37217 0.0396168 4
388 1 10.7315 1.78232 5.3226 -1.25372 0.503644 -0.950407 1 -7.33293 0.00169844 4
389 1 11.6089 0.889643 4.43903 -2.53927 2.22819 0.315666 1 -7.37342 0.0071656 4
390 1 11.619 2.66436 6.24737 0.241643 -4.29819 1.6964 1 -7.34543 0.0133265 4
391 1 8.88235 3.53203 5.33955 1.70608 4.48228 -7.09342 1 -7.32985 0.0456352 4
392 1 12.5062 3.54219 5.38135 1.73173 -0.367202 -1.64273 1 -7.35465 0.00363016 4
393 1 8.8686 1.78701 7.15362 -3.17594 -11.2748 -7.85947 1 -7.33565 0.12385 4
394 1 9.80993 2.64869 8.02205 -3.21789 -3.10232 -3.42174 1 -7.29716 0.0197231 4
395 1 12.4928 1.76775 7.16588 3.55109 0.711533 3.59555 1 -7.31513 0.0162108 4
396 1 11.6138 0.924647 8.07071 8.85765 2.16951 1.30773 1 -7.36432 0.0528284 4
397 1 10.6963 3.55701 7.14951 -7.41687 0.41764 -10.4976 1 -7.34506 0.102939 4
398 1 13.3925 0.903983 6.2266 4.09999 -1.2878 4.95092 1 -7.3238 0.0267518 4
399 1 13.3762 2.65524 4.46668 -1.4265 12.7935 -2.52972 1 -7.2587 0.107124 4
400 1 14.322 1.7884 5.38336 5.22939 -4.27966 2.75757 1 -7.36254 0.0331543 4
401 1 15.1625 0.888011 4.4584 -10.4652 -6.97923 -3.36674 1 -7.3253 0.105542 4
402 1 15.2398 2.65062 6.27119 0.463834 4.07261 -1.87217 1 -7.41469 0.0126392 4
403 1 17.0201 0.846082 6.2675 5.06699 -3.00052 0.524238 1 -7.30318 0.0217552 4
404 1 16.955 2.66998 4.45807 0.238364 -3.00369 2.87525 1 -7.30787 0.0107966 4
405 1 16.0958 3.55537 5.37578 2.03187 0.501513 -1.4489 1 -7.30065 0.00403291 4
406 1 13.3855 2.70172 8.05823 -1.33029 -2.93813 1.15753 1 -7.31143 0.00730864 4
407 1 16.0915 1.78557 7.18579 5.69727 -1.4239 2.12812 1 -7.30335 0.0242841 4
408 1 15.176 0.859005 8.08844 -2.25744 -0.138098 -1.70635 1 -7.32446 0.00499605 4
409 1 16.9466 2.66707 8.05203 1.68146 -0.761546 -0.549818 1 -7.36635 0.00230893 4
410 1 14.3217 3.54458 7.18488 12.4511 -3.29014 -11.275 1 -7.35194 0.182358 4
412 1 17.868 1.74602 5.39253 7.07705 -4.44338 4.69941 1 -7.33146 0.0572089 4
413 1 18.7551 0.919767 4.4839 -9.71615 1.53864 -4.52298 1 -7.35702 0.0729659 4
414 1 18.7372 2.66245 6.25321 -3.39632 7.98418 -6.08252 1 -7.38475 0.0698855 4
415 1 20.498 0.879922 6.28634 -3.61102 -0.256813 -3.65549 1 -7.29371 0.0164744 4
416 1 20.5019 2.69328 4.46638 -4.44662 -0.281579 6.19667 1 -7.30679 0.0362566 4
417 1 19.6444 3.55847 5.40381 -4.31518 -2.90438 -9.23192 1 -7.36065 0.0698888 4
418 1 19.5947 1.81254 7.16713 0.546128 -0.795697 -0.869532 1 -7.34211 0.00105033 4
419 1 18.7844 0.912578 8.07636 5.86408 -1.36931 -0.184314 1 -7.27336 0.0225918 4
420 1 20.4958 2.65474 8.05094 -0.926692 -4.54107 9.60927 1 -7.33519 0.0708435 4
421 1 17.8488 3.55618 7.15882 -5.5114 -5.30252 -1.11053 1 -7.33457 0.0371747 4
423 1 0.87795 4.48559 4.4921 -3.30424 3.87499 -6.47317 1 -7.40318 0.0422226 4
424 1 0.910546 6.24891 6.29496 1.53012 0.34373 -2.35094 1 -7.38261 0.00497089 4
425 1 2.66028 4.44901 6.34122 -1.49623 2.81678 -8.93971 1 -7.23832 0.0560752 4
426 1 2.66524 6.28411 4.46989 -4.32555 -3.28823 4.43409 1 -7.31311 0.0306134 4
427 1 3.57833 5.33241 5.38564 1.03811 -2.33771 3.90966 1 -7.17666 0.0135863 4
428 1 1.80384 7.12847 5.38681 -1.32606 -4.29085 -8.13899 1 -7.37306 0.0537857 4
429 1 0.877704 8.02174 4.53743 1.73428 -0.75675 -3.10311 1 -7.29624 0.00822204 4
430 1 2.67012 8.0439 6.3005 9.73498 -2.43209 -4.502 1 -7.37499 0.0752842 4
431 1 1.75351 5.36502 7.17776 4.90843 4.36806 3.57566 1 -7.39786 0.0348297 4
432 1 0.913073 4.49493 8.05724 3.22902 -4.61014 1.2524 1 -7.29405 0.0206947 4
433 1 2.67309 6.27962 8.06126 0.0462554 0.0885509 4.7272 1 -7.29251 0.0139152 4
434 1 0.867243 8.05684 8.09878 -3.88285 -5.66394 1.68385 1 -7.31077 0.0311164 4