ITEM: TIMESTEP
49125750
ITEM: NUMBER OF ATOMS
3060
ITEM: BOX BOUNDS pp pp mm
0.0000000000000000e+00 2.1394294200000001e+01
0.0000000000000000e+00 2.1394294200000001e+01
-5.3491084073550004e-03 5.3485735499999997e+01
ITEM: ATOMS id type x y z vx vy vz c_clusts c_atom_pe c_atom_ke c_atom_coord
1 1 0 0 0 0 0 0 1 -3.32933 0 2
2 1 1.78286 1.78286 0 0 0 0 1 -3.33049 0 2
3 1 0.891429 0.891429 0.891429 0 0 0 1 -7.02182 0 4
4 1 0.895568 2.74675 2.67221 -5.24624 -0.722848 2.27858 1 -7.29829 0.0206879 4
5 1 2.67485 0.915489 2.64124 -10.8214 -5.67293 -7.75941 1 -7.37999 0.130395 4
6 1 2.67429 2.67429 0.891429 0 0 0 1 -7.02675 0 4
7 1 3.56572 0 0 0 0 0 1 -3.35084 0 2
8 1 3.57149 1.79231 1.79594 -2.80194 -5.14961 -8.84412 1 -7.36357 0.0700776 4
9 1 0 3.56572 0 0 0 0 1 -3.32407 0 2
10 1 1.78444 3.56188 1.79744 -5.54695 -4.47771 -1.56251 1 -7.37257 0.0331504 4
11 1 3.56572 3.56572 0 0 0 0 1 -3.33659 0 2
12 1 1.81944 1.79969 3.5827 5.73596 3.1901 2.52955 1 -7.28673 0.0307955 4
13 1 3.59963 3.61725 3.58056 5.01917 2.81966 3.46634 1 -7.30097 0.0281075 4
292 1 1.79587 0.00968006 1.77892 5.33631 -0.933388 -3.27153 1 -7.40663 0.0249284 4
56 1 0.00612037 3.61791 3.58262 4.68001 2.22111 -0.175431 1 -7.37339 0.0167225 4
55 1 0.0165191 1.79876 1.78816 -4.5943 1.90368 -0.514101 1 -7.3431 0.0155581 4
291 1 3.55721 0.0137563 3.5376 0.183995 -9.58178 -2.19591 1 -7.30016 0.0601677 4
350 1 0.00386383 0.00684945 3.55032 -0.631439 2.64149 -6.24998 1 -7.33068 0.0289045 4
14 1 5.34857 1.78286 0 0 0 0 1 -3.32184 0 2
15 1 4.45714 0.891429 0.891429 0 0 0 1 -7.01017 0 4
16 1 4.4757 2.6494 2.72026 -3.79921 -12.0034 2.73575 1 -7.31566 0.103322 4
17 1 6.26363 0.873293 2.68495 -3.21297 2.65823 4.89514 1 -7.38378 0.0257384 4
18 1 6.24 2.67429 0.891429 0 0 0 1 -6.99955 0 4
19 1 7.13143 0 0 0 0 0 1 -3.31391 0 2
20 1 7.15501 1.7666 1.74996 -4.38882 -1.50078 2.95033 1 -7.31487 0.0188088 4
21 1 8.02286 0.891429 0.891429 0 0 0 1 -7.03822 0 4
22 1 7.97739 2.6345 2.66607 1.14072 6.28432 -1.29111 1 -7.32964 0.0264287 4
23 1 5.35308 3.57349 1.81063 -1.71775 -5.24984 7.67146 1 -7.30429 0.0556217 4
24 1 7.13143 3.56572 0 0 0 0 1 -3.33263 0 2
25 1 5.40055 1.74395 3.55083 4.93293 -4.26616 -0.0471245 1 -7.33383 0.0264756 4
26 1 7.12429 3.53546 3.5264 0.183394 -2.93155 -0.839184 1 -7.35321 0.00580838 4
306 1 7.2142 0.0199298 3.50809 1.17327 -8.3826 -1.01161 1 -7.30476 0.0452304 4
28 1 8.91429 1.78286 0 0 0 0 1 -3.3381 0 2
29 1 9.83452 0.850616 2.65896 1.01953 -7.96339 -0.568327 1 -7.34372 0.0403196 4
30 1 9.80572 2.67429 0.891429 0 0 0 1 -6.99305 0 4
31 1 10.6971 0 0 0 0 0 1 -3.34891 0 2
32 1 10.6887 1.74974 1.79945 -7.40872 -0.291612 -1.27255 1 -7.3548 0.0352253 4
33 1 12.48 1.78286 0 0 0 0 1 -3.33795 0 2
34 1 11.5886 0.891429 0.891429 0 0 0 1 -7.0154 0 4
35 1 11.5686 2.67429 2.66802 -0.218856 5.09205 0.235479 1 -7.35264 0.0162032 4
36 1 8.94019 3.55589 1.78807 6.58094 -5.45521 2.36365 1 -7.27997 0.0489569 4
37 1 10.6971 3.56572 0 0 0 0 1 -3.34971 0 2
38 1 12.4895 3.56039 1.77609 -1.39587 -4.64007 -8.11635 1 -7.41041 0.0556162 4
39 1 8.92068 1.76562 3.54863 -5.12855 -1.83561 7.66746 1 -7.25001 0.0550608 4
40 1 12.4422 1.80705 3.57049 4.58804 -1.07655 -11.9105 1 -7.31226 0.102121 4
41 1 10.6787 3.54327 3.57754 3.72965 2.65143 1.21668 1 -7.32126 0.0139552 4
319 1 10.7299 -0.0326112 3.57542 -4.3497 -9.28213 -1.28168 1 -7.369 0.0664257 4
42 1 13.3988 0.885773 2.67544 -2.80306 0.623996 1.67792 1 -7.28621 0.00688521 4
43 1 13.3714 2.67429 0.891429 0 0 0 1 -7.04106 0 4
44 1 14.2629 0 0 0 0 0 1 -3.31091 0 2
45 1 14.2442 1.77824 1.76975 -0.8186 -8.54733 -2.23226 1 -7.32873 0.0489912 4
46 1 16.0457 1.78286 0 0 0 0 1 -3.3271 0 2
47 1 15.1543 0.891429 0.891429 0 0 0 1 -7.00411 0 4
48 1 15.1671 2.6934 2.69858 -3.4626 -2.51083 2.2356 1 -7.34253 0.0144974 4
49 1 16.9009 0.906511 2.6777 -3.18716 0.645976 -0.634558 1 -7.34896 0.00683294 4
50 1 16.9371 2.67429 0.891429 0 0 0 1 -7.01047 0 4
51 1 14.2629 3.56572 0 0 0 0 1 -3.33801 0 2
52 1 16.0342 3.56459 1.76982 -6.86268 5.46776 -1.92617 1 -7.35947 0.0502317 4
53 1 16.0154 1.82129 3.55785 -8.26641 -4.73648 -2.36771 1 -7.39165 0.0599856 4
54 1 14.277 3.58917 3.55811 2.76055 2.24211 -4.61241 1 -7.33064 0.0211139 4
336 1 14.304 -0.0182715 3.55473 -1.76183 -4.59796 -8.09635 1 -7.40253 0.0558914 4
57 1 17.8286 0 0 0 0 0 1 -3.33124 0 2
58 1 17.8019 1.79366 1.77029 -2.63043 6.21951 2.17455 1 -7.33385 0.0313268 4
59 1 19.6114 1.78286 0 0 0 0 1 -3.33694 0 2
60 1 18.72 0.891429 0.891429 0 0 0 1 -7.0281 0 4
61 1 18.7088 2.71885 2.6776 13.0389 0.398711 0.217127 1 -7.31398 0.105949 4
62 1 20.5122 0.934065 2.63738 1.09105 4.08368 -2.90047 1 -7.35647 0.0163571 4
63 1 20.5029 2.67429 0.891429 0 0 0 1 -6.99397 0 4
64 1 17.8286 3.56572 0 0 0 0 1 -3.34027 0 2
65 1 19.623 3.57282 1.7986 6.69255 -0.584304 1.71787 1 -7.35891 0.0299279 4
66 1 19.627 1.83234 3.56432 -3.14459 -2.89553 2.60032 1 -7.36977 0.0155819 4
67 1 17.8593 3.56717 3.58385 4.14554 -2.38418 2.48995 1 -7.34911 0.0180937 4
68 1 19.6238 0.0193087 1.76133 -2.20862 2.27498 -2.1201 1 -7.37057 0.00905528 4
349 1 17.8408 0.0525875 3.54572 -2.06919 -0.6826 -2.87653 1 -7.25948 0.00810519 4
69 1 1.78286 5.34857 0 0 0 0 1 -3.33929 0 2
70 1 0.891429 4.45714 0.891429 0 0 0 1 -7.01835 0 4
71 1 0.863855 6.18644 2.62574 3.19994 -9.46231 -0.714884 1 -7.28283 0.0624206 4
72 1 2.66575 4.41128 2.68853 3.6595 -10.6538 8.34408 1 -7.40368 0.122318 4
73 1 2.67429 6.24 0.891429 0 0 0 1 -7.02561 0 4
74 1 3.53006 5.35324 1.80879 0.465843 -1.67942 0.531531 1 -7.30372 0.00206644 4
75 1 0 7.13143 0 0 0 0 1 -3.34483 0 2
76 1 1.78596 7.13322 1.76467 -3.90783 -4.29516 -8.55984 1 -7.32905 0.0665936 4
77 1 0.891429 8.02286 0.891429 0 0 0 1 -7.03729 0 4
78 1 2.65123 8.00948 2.68002 2.86531 6.76227 -4.36132 1 -7.35047 0.0454118 4
79 1 3.56572 7.13143 0 0 0 0 1 -3.33778 0 2
80 1 1.78155 5.30867 3.59326 -2.15429 -8.39098 -0.203583 1 -7.24802 0.0467386 4
81 1 3.58208 7.12558 3.55942 -1.89946 2.52638 3.6864 1 -7.36249 0.0146769 4
128 1 -0.00307466 5.32612 1.77155 -3.77899 -3.21925 -2.11142 1 -7.40852 0.0181141 4
82 1 0.0467168 7.10616 3.55917 -4.40697 -5.20907 0.361111 1 -7.22827 0.0290587 4
83 1 5.34857 5.34857 0 0 0 0 1 -3.35013 0 2
84 1 4.45714 4.45714 0.891429 0 0 0 1 -6.96179 0 4
85 1 4.48363 6.23412 2.68078 0.911821 -11.28 -3.41341 1 -7.34656 0.0869662 4
86 1 6.26016 4.47107 2.6637 0.0700331 3.67218 -4.82025 1 -7.35931 0.0228583 4
87 1 6.24 6.24 0.891429 0 0 0 1 -7.01823 0 4
88 1 7.13953 5.36641 1.78136 3.72682 7.56327 -8.01162 1 -7.38961 0.0842007 4
89 1 8.02286 4.45714 0.891429 0 0 0 1 -6.99037 0 4
90 1 8.01864 6.26677 2.63306 3.27057 -0.0844243 8.83737 1 -7.38365 0.0552732 4
91 1 5.36468 7.13545 1.77641 -4.99328 -2.2943 -0.750284 1 -7.3576 0.0191456 4
92 1 4.45714 8.02286 0.891429 0 0 0 1 -7.01676 0 4
93 1 6.25699 8.02092 2.72189 -16.1596 2.40791 -0.44391 1 -7.27635 0.166268 4
94 1 7.13143 7.13143 0 0 0 0 1 -3.33876 0 2
95 1 8.02286 8.02286 0.891429 0 0 0 1 -7.02888 0 4
96 1 5.37009 5.34868 3.60777 5.39513 7.2244 -7.20875 1 -7.33419 0.082948 4
97 1 7.17986 7.13398 3.54955 5.19117 -2.48917 0.12138 1 -7.33619 0.020639 4
98 1 8.91429 5.34857 0 0 0 0 1 -3.33086 0 2
99 1 9.84047 4.43511 2.66108 -4.47743 -2.47119 0.661659 1 -7.35084 0.0165515 4
100 1 9.80572 6.24 0.891429 0 0 0 1 -7.01062 0 4
101 1 10.7383 5.33127 1.79389 -0.961123 -5.77486 -0.711631 1 -7.36628 0.0216475 4
102 1 12.48 5.34857 0 0 0 0 1 -3.33671 0 2
103 1 11.5886 4.45714 0.891429 0 0 0 1 -7.01026 0 4
104 1 11.6141 6.23715 2.67081 4.07764 1.34808 1.09552 1 -7.40742 0.0122273 4
105 1 8.95426 7.14009 1.72987 5.71903 -1.18338 -0.778488 1 -7.33124 0.0216068 4
106 1 9.78656 8.00314 2.66953 7.7995 5.23975 -4.13975 1 -7.36934 0.0656191 4
107 1 10.6971 7.13143 0 0 0 0 1 -3.30072 0 2
108 1 12.4919 7.10951 1.7959 2.23143 -9.36081 8.38091 1 -7.3627 0.101358 4
109 1 11.5886 8.02286 0.891429 0 0 0 1 -7.00672 0 4
110 1 8.89186 5.34269 3.49899 -0.0250734 -3.57168 -2.55806 1 -7.20475 0.0120135 4
111 1 12.4868 5.34915 3.57652 -7.15642 5.91748 4.48238 1 -7.35623 0.066178 4
112 1 10.6986 7.105 3.55956 1.64221 8.15583 4.23928 1 -7.37604 0.0542668 4
113 1 13.3726 4.42902 2.65012 3.19894 -11.8815 2.30441 1 -7.37397 0.0975428 4
114 1 13.3714 6.24 0.891429 0 0 0 1 -6.98653 0 4
115 1 14.2674 5.33868 1.81912 -10.1069 7.35733 -6.8877 1 -7.29528 0.126801 4
116 1 16.0457 5.34857 0 0 0 0 1 -3.34316 0 2
117 1 15.1543 4.45714 0.891429 0 0 0 1 -6.99013 0 4
118 1 15.1966 6.23868 2.63913 3.93706 8.18432 -2.28552 1 -7.26049 0.0545912 4
119 1 16.9572 4.45935 2.63082 5.9238 -1.77327 -1.21407 1 -7.29385 0.0247164 4
120 1 16.9371 6.24 0.891429 0 0 0 1 -7.01088 0 4
121 1 13.3861 7.98253 2.68657 0.684724 0.0529031 5.75854 1 -7.38695 0.0209337 4
122 1 14.2629 7.13143 0 0 0 0 1 -3.35244 0 2
123 1 16.0771 7.14851 1.75193 2.7212 -4.50528 -4.58589 1 -7.31626 0.0303326 4
124 1 15.1543 8.02286 0.891429 0 0 0 1 -7.02378 0 4
125 1 16.9597 8.06637 2.73289 -2.88403 0.0981744 4.17577 1 -7.28735 0.0160364 4
126 1 16.073 5.31033 3.57214 -10.8933 3.15174 3.48809 1 -7.28593 0.0876152 4
127 1 14.2617 7.11178 3.54727 -2.36802 -0.585156 4.4902 1 -7.33772 0.0162527 4
129 1 17.8254 5.33224 1.7834 0.269333 -3.22431 -2.93349 1 -7.39001 0.0118722 4
130 1 19.6114 5.34857 0 0 0 0 1 -3.3151 0 2
131 1 18.72 4.45714 0.891429 0 0 0 1 -7.00058 0 4
132 1 18.6965 6.2491 2.66399 1.60623 -0.996583 -5.79329 1 -7.41118 0.023114 4
133 1 20.5127 4.47272 2.6665 -3.52303 -3.13151 -7.67543 1 -7.36133 0.0504977 4
134 1 20.5029 6.24 0.891429 0 0 0 1 -6.9926 0 4
135 1 17.8286 7.13143 0 0 0 0 1 -3.3229 0 2
136 1 19.5607 7.11711 1.7808 -1.79438 -4.98645 5.44984 1 -7.32182 0.0359671 4
137 1 18.72 8.02286 0.891429 0 0 0 1 -7.01707 0 4
138 1 20.5142 8.03821 2.66516 -5.278 2.74601 -3.14275 1 -7.27503 0.0281802 4
139 1 19.6065 5.35428 3.5791 1.00258 -2.75205 4.83474 1 -7.26343 0.0198888 4
140 1 17.8349 7.12833 3.57247 7.70984 3.69765 6.02131 1 -7.34321 0.068075 4
141 1 1.78286 8.91429 0 0 0 0 1 -3.33935 0 2
142 1 0.898328 9.82724 2.62511 0.778273 -0.426126 -4.05596 1 -7.30591 0.0107294 4
143 1 2.67429 9.80572 0.891429 0 0 0 1 -7.0163 0 4
144 1 3.54667 8.92217 1.76241 3.34891 -4.36435 3.02049 1 -7.30582 0.024515 4
145 1 0 10.6971 0 0 0 0 1 -3.32847 0 2
146 1 1.80646 10.6977 1.80516 -2.47878 2.26061 4.66685 1 -7.375 0.0205613 4
147 1 1.78286 12.48 0 0 0 0 1 -3.31996 0 2
148 1 0.891429 11.5886 0.891429 0 0 0 1 -6.99588 0 4
149 1 2.71094 11.5772 2.661 -7.4259 -1.45108 -2.77532 1 -7.33553 0.0404279 4
150 1 3.56572 10.6971 0 0 0 0 1 -3.3537 0 2
151 1 3.6333 12.4692 1.77808 0.965175 -6.59144 -3.55276 1 -7.34613 0.0354787 4
152 1 1.75219 8.9027 3.58743 5.30687 4.30413 3.46303 1 -7.2688 0.0365246 4
153 1 1.84369 12.4817 3.54032 8.36774 0.13805 -0.337671 1 -7.36926 0.0436646 4
154 1 3.5881 10.6728 3.58247 -1.1342 -0.659319 -15.2969 1 -7.3104 0.146716 4
205 1 0.021523 8.88733 1.77539 7.79864 -5.71945 -1.6322 1 -7.37492 0.0598743 4
204 1 0.0274687 12.5029 1.75508 12.8013 -1.76385 -1.01066 1 -7.34617 0.104571 4
155 1 5.34857 8.91429 0 0 0 0 1 -3.33523 0 2
156 1 4.49105 9.82013 2.65939 -0.252655 5.41398 -3.82702 1 -7.31066 0.0273998 4
157 1 6.24 9.80572 0.891429 0 0 0 1 -6.98066 0 4
158 1 7.17812 8.92946 1.77972 -7.78339 -4.98297 -4.3158 1 -7.30133 0.0647555 4
159 1 7.99949 9.83412 2.69172 -7.78099 -2.54536 -3.55426 1 -7.39728 0.0495796 4
160 1 5.34065 10.7302 1.76336 0.829233 2.25897 2.83623 1 -7.374 0.00861114 4
161 1 5.34857 12.48 0 0 0 0 1 -3.31647 0 2
162 1 4.45714 11.5886 0.891429 0 0 0 1 -7.05035 0 4
163 1 6.24512 11.5781 2.6781 -1.53806 1.67 1.14825 1 -7.34822 0.00402897 4
164 1 7.13143 10.6971 0 0 0 0 1 -3.31738 0 2
165 1 7.14716 12.4857 1.76138 -4.59003 -4.61791 3.12635 1 -7.30071 0.0324704 4
166 1 8.02286 11.5886 0.891429 0 0 0 1 -7.02923 0 4
167 1 5.34499 8.90379 3.57787 -6.61717 -6.86095 2.3326 1 -7.33359 0.05994 4
168 1 5.40967 12.4937 3.55157 -2.93128 2.02433 -0.69611 1 -7.33212 0.00820038 4
169 1 7.11704 10.6685 3.54447 0.829403 -0.614729 -4.23587 1 -7.34131 0.0118313 4
170 1 8.91429 8.91429 0 0 0 0 1 -3.2917 0 2
171 1 9.80572 9.80572 0.891429 0 0 0 1 -6.99153 0 4
172 1 10.6703 8.90507 1.75947 -4.85973 8.56408 -5.33432 1 -7.32989 0.0780619 4
173 1 12.48 8.91429 0 0 0 0 1 -3.338 0 2
174 1 11.5676 9.79084 2.65217 5.65554 3.19791 4.76244 1 -7.28279 0.0403909 4
175 1 8.86916 10.7388 1.78173 -4.07851 -1.94089 0.444696 1 -7.34972 0.0128214 4
176 1 8.91429 12.48 0 0 0 0 1 -3.34344 0 2
177 1 9.7687 11.601 2.66018 5.77278 0.0433015 -5.71066 1 -7.39595 0.0410418 4
178 1 10.6971 10.6971 0 0 0 0 1 -3.32907 0 2
179 1 10.6796 12.4638 1.80341 3.06779 -4.47921 2.44388 1 -7.33701 0.0220632 4
180 1 12.4853 10.685 1.78761 7.15337 0.24746 -1.20837 1 -7.32359 0.032797 4
181 1 12.48 12.48 0 0 0 0 1 -3.34653 0 2
182 1 11.5886 11.5886 0.891429 0 0 0 1 -6.98806 0 4
183 1 8.91839 8.93782 3.52113 -1.00295 0.166753 0.896674 1 -7.36402 0.00114386 4
184 1 12.4893 8.84732 3.52141 7.12602 3.18489 8.32944 1 -7.28422 0.0811042 4
185 1 8.9216 12.4877 3.58235 1.50993 3.73888 -8.10833 1 -7.32671 0.0510415 4
186 1 10.6749 10.7396 3.57044 3.8093 1.15619 -4.07874 1 -7.26592 0.0202187 4
187 1 12.5024 12.4566 3.58395 -0.938226 13.3604 2.483 1 -7.36696 0.115488 4
188 1 13.3714 9.80572 0.891429 0 0 0 1 -7.01481 0 4
189 1 14.2862 8.89378 1.79408 2.60655 3.51717 1.14304 1 -7.34604 0.0127418 4
190 1 16.0457 8.91429 0 0 0 0 1 -3.34609 0 2
191 1 15.1788 9.76024 2.71621 -3.86422 -2.6067 -0.388916 1 -7.24388 0.0136177 4
192 1 16.9371 9.80572 0.891429 0 0 0 1 -6.97911 0 4
193 1 13.3918 11.5885 2.70523 -1.67411 4.03203 1.12837 1 -7.38275 0.0126559 4
194 1 14.2629 10.6971 0 0 0 0 1 -3.35874 0 2
195 1 14.2906 12.4686 1.7996 -1.11098 -2.03526 -7.62263 1 -7.35351 0.0395123 4
196 1 16.0869 10.7554 1.77152 -5.5796 0.720846 -2.89725 1 -7.24663 0.0249254 4
197 1 16.0457 12.48 0 0 0 0 1 -3.31782 0 2
198 1 15.1543 11.5886 0.891429 0 0 0 1 -7.03799 0 4
199 1 16.9349 11.6262 2.68437 0.316703 -7.46735 6.91794 1 -7.36167 0.0645578 4
200 1 16.0751 8.88277 3.57408 -2.56628 -9.29869 -1.72599 1 -7.38334 0.0597719 4
201 1 14.2491 10.6883 3.54671 5.54214 0.34559 -6.19844 1 -7.25617 0.0431064 4
202 1 16.0572 12.4859 3.59008 7.40611 -3.9536 1.7227 1 -7.3674 0.0457167 4
203 1 21.4378 10.7519 3.53103 8.36134 4.10118 1.37345 1 -7.32261 0.0551582 4
206 1 17.8447 8.92693 1.81308 6.35784 4.17267 -1.46092 1 -7.36 0.0373254 4
207 1 19.6114 8.91429 0 0 0 0 1 -3.35455 0 2
208 1 18.7185 9.83353 2.68303 -5.26773 -3.53545 10.6659 1 -7.34726 0.0958599 4
209 1 20.5029 9.80572 0.891429 0 0 0 1 -6.99125 0 4
210 1 17.8286 10.6971 0 0 0 0 1 -3.32341 0 2
211 1 17.813 12.4861 1.82071 -0.891389 3.50894 -2.20057 1 -7.33936 0.0111724 4
212 1 19.6608 10.7256 1.77633 6.71826 -1.04388 -1.28737 1 -7.31924 0.029803 4
213 1 19.6114 12.48 0 0 0 0 1 -3.31335 0 2
214 1 18.72 11.5886 0.891429 0 0 0 1 -6.96769 0 4
215 1 20.5509 11.6342 2.67444 -0.951068 6.89895 6.57806 1 -7.3648 0.0571206 4
216 1 19.5955 8.96563 3.56694 3.22033 -0.855337 4.19066 1 -7.33451 0.017841 4
217 1 17.8728 10.7005 3.57433 -0.0483417 -1.47303 1.56237 1 -7.33117 0.00287135 4
218 1 19.6229 12.4975 3.5472 -4.0507 -1.65728 7.9708 1 -7.41469 0.0514675 4
219 1 0.927502 13.3848 2.65869 1.87251 1.86904 0.845146 1 -7.33935 0.00480132 4
220 1 2.67429 13.3714 0.891429 0 0 0 1 -6.9962 0 4
221 1 0 14.2629 0 0 0 0 1 -3.3198 0 2
222 1 1.78312 14.256 1.76239 4.47322 -4.05146 -1.2974 1 -7.35046 0.0237189 4
223 1 1.78286 16.0457 0 0 0 0 1 -3.32924 0 2
224 1 0.891429 15.1543 0.891429 0 0 0 1 -7.03514 0 4
225 1 0.876367 16.9471 2.65254 -2.17745 -4.17224 3.36319 1 -7.32168 0.0208263 4
226 1 2.6625 15.2122 2.65154 2.06792 -3.79513 6.97967 1 -7.29148 0.0419485 4
227 1 2.67429 16.9371 0.891429 0 0 0 1 -7.01171 0 4
228 1 3.56572 14.2629 0 0 0 0 1 -3.31609 0 2
229 1 3.55083 16.0749 1.78398 -5.01502 4.75812 -8.13931 1 -7.33258 0.0709806 4
230 1 1.76451 16.0773 3.54435 0.996438 -3.40412 -0.0803481 1 -7.32419 0.0078347 4
231 1 3.58509 14.2607 3.54557 -0.474008 -10.6001 -4.17742 1 -7.32128 0.0809393 4
233 1 0.00165081 16.0259 1.74474 5.61077 3.34795 0.886365 1 -7.34399 0.0270601 4
232 1 0.0124699 14.2638 3.58336 -2.54999 -6.46848 -4.00262 1 -7.31242 0.0400623 4
234 1 4.45393 13.3401 2.66231 3.15533 -0.6679 1.53998 1 -7.36812 0.00795073 4
235 1 6.24 13.3714 0.891429 0 0 0 1 -6.98307 0 4
236 1 8.06405 13.4014 2.68005 -5.09416 3.01728 1.49825 1 -7.30745 0.023216 4
237 1 5.31162 14.2759 1.78047 1.51882 1.04764 -4.93586 1 -7.32358 0.017283 4
238 1 5.34857 16.0457 0 0 0 0 1 -3.35206 0 2
239 1 4.45714 15.1543 0.891429 0 0 0 1 -7.04292 0 4
240 1 4.42555 16.9907 2.72419 2.635 1.62973 -2.68138 1 -7.33629 0.0104499 4
241 1 6.24791 15.1541 2.6638 -5.11021 -0.137207 6.01594 1 -7.33489 0.0387924 4
242 1 6.24 16.9371 0.891429 0 0 0 1 -7.00093 0 4
243 1 7.13143 14.2629 0 0 0 0 1 -3.34273 0 2
244 1 7.16505 16.0617 1.78069 -3.33229 1.47376 -4.0419 1 -7.34594 0.018432 4
245 1 8.02286 15.1543 0.891429 0 0 0 1 -6.98358 0 4
246 1 8.01925 16.9345 2.71859 7.22414 -0.157266 4.6947 1 -7.3461 0.0462171 4
247 1 5.33158 16.043 3.58682 7.99191 6.4357 -1.52997 1 -7.26488 0.0669916 4
248 1 7.13001 14.3096 3.52908 0.26907 -0.218248 -1.9622 1 -7.37332 0.0024712 4
249 1 9.80572 13.3714 0.891429 0 0 0 1 -7.00662 0 4
250 1 11.6221 13.3688 2.65518 4.41457 -7.71175 5.52133 1 -7.33555 0.0681211 4
251 1 8.97181 14.2528 1.79204 -1.2376 -3.17825 -3.75278 1 -7.32054 0.0160065 4
252 1 8.91429 16.0457 0 0 0 0 1 -3.31567 0 2
253 1 9.86109 15.1886 2.68188 -1.8761 -0.207748 5.05857 1 -7.37512 0.018145 4
254 1 9.80572 16.9371 0.891429 0 0 0 1 -7.04709 0 4
255 1 10.6971 14.2629 0 0 0 0 1 -3.3459 0 2
256 1 10.6919 16.06 1.78142 -9.40072 -0.691429 -2.14305 1 -7.27628 0.0581622 4
257 1 12.4695 14.3012 1.77241 -0.125521 1.38086 5.47583 1 -7.30086 0.0198599 4
258 1 12.48 16.0457 0 0 0 0 1 -3.32208 0 2
259 1 11.5886 15.1543 0.891429 0 0 0 1 -7.01815 0 4
260 1 11.6682 16.9475 2.69621 -1.44389 -1.11948 4.16286 1 -7.27748 0.012864 4
261 1 8.97137 16.0917 3.60138 -5.19762 -4.90337 -8.68994 1 -7.31759 0.0787826 4
262 1 10.7578 14.3053 3.51022 -1.17519 -0.426231 -1.25147 1 -7.22009 0.00194752 4
263 1 12.4562 16.0608 3.5963 -1.14029 10.2407 0.156066 1 -7.29515 0.0660996 4
264 1 13.3714 13.3714 0.891429 0 0 0 1 -6.96162 0 4
265 1 15.153 13.3965 2.66784 -2.3057 7.234 10.8259 1 -7.32543 0.108829 4
266 1 16.9371 13.3714 0.891429 0 0 0 1 -7.0097 0 4
267 1 13.3772 15.1919 2.69912 4.29154 2.17265 1.74388 1 -7.32911 0.0162944 4
268 1 13.3714 16.9371 0.891429 0 0 0 1 -7.01716 0 4
269 1 14.2629 14.2629 0 0 0 0 1 -3.31223 0 2
270 1 14.2694 16.0294 1.744 -6.58993 -0.471916 4.91282 1 -7.36318 0.0421916 4
271 1 16.0547 14.253 1.75723 -4.20678 -2.92708 2.76742 1 -7.37149 0.0211148 4
272 1 16.0457 16.0457 0 0 0 0 1 -3.33549 0 2
273 1 15.1543 15.1543 0.891429 0 0 0 1 -7.02988 0 4
274 1 15.1973 16.9343 2.59701 0.886208 -3.16684 2.27667 1 -7.28372 0.00995723 4
275 1 16.9819 15.1295 2.63986 -2.23444 5.67123 3.30567 1 -7.27284 0.0299281 4
276 1 16.9371 16.9371 0.891429 0 0 0 1 -7.04231 0 4
277 1 14.2427 14.2647 3.57822 3.69307 1.52083 -3.68422 1 -7.36209 0.0183773 4
278 1 16.0533 16.0451 3.54085 -1.65008 0.736555 -4.94571 1 -7.29807 0.017257 4
279 1 18.7217 13.352 2.67636 -5.53394 -9.95317 -2.20682 1 -7.3805 0.0837538 4
280 1 20.5029 13.3714 0.891429 0 0 0 1 -7.0324 0 4
281 1 17.8286 14.2629 0 0 0 0 1 -3.31938 0 2
282 1 17.7939 16.059 1.77846 6.4824 6.64754 3.22445 1 -7.32686 0.0601316 4
283 1 19.5754 14.233 1.77431 -1.2119 -11.936 -0.0965238 1 -7.36204 0.0895955 4
284 1 19.6114 16.0457 0 0 0 0 1 -3.32928 0 2
285 1 18.72 15.1543 0.891429 0 0 0 1 -6.97984 0 4
286 1 18.7038 16.897 2.70855 1.3355 2.96353 5.85033 1 -7.29774 0.02788 4
287 1 20.4607 15.1472 2.68247 2.81484 -1.56589 4.73592 1 -7.28499 0.0204182 4
288 1 20.5029 16.9371 0.891429 0 0 0 1 -7.01733 0 4
289 1 17.8561 14.2664 3.56872 -0.16012 0.0733965 3.61935 1 -7.40958 0.00817291 4
290 1 19.6287 15.9888 3.5648 -0.85126 -5.4962 6.15263 1 -7.33746 0.0428153 4
293 1 0 17.8286 0 0 0 0 1 -3.35144 0 2
294 1 1.75191 17.8243 1.77787 -1.0328 5.16645 -4.70753 1 -7.33907 0.0310713 4
295 1 1.78286 19.6114 0 0 0 0 1 -3.33927 0 2
296 1 0.891429 18.72 0.891429 0 0 0 1 -7.00047 0 4
297 1 0.917911 20.5131 2.67434 4.79528 -6.85998 -5.72951 1 -7.36401 0.064036 4
298 1 2.6327 18.7251 2.67972 5.89326 3.49926 6.93808 1 -7.27667 0.0592003 4
299 1 2.67429 20.5029 0.891429 0 0 0 1 -7.03909 0 4
300 1 3.56572 17.8286 0 0 0 0 1 -3.33379 0 2
301 1 3.51312 19.6198 1.76958 0.232294 7.76294 9.44302 1 -7.32779 0.0930451 4
302 1 1.74564 19.6477 3.62216 -2.9845 3.70668 10.0054 1 -7.31806 0.076406 4
303 1 3.56655 17.8372 3.58581 0.681188 1.88124 7.1616 1 -7.33873 0.034415 4
305 1 0.04712 19.6072 1.8241 -3.58517 2.36056 -5.29361 1 -7.29517 0.0289104 4
27 1 5.38241 21.4113 1.77727 3.66157 2.81869 -1.88366 1 -7.30328 0.0154986 4
307 1 5.3586 17.8417 1.82616 4.19937 -8.75678 1.19773 1 -7.34775 0.0595976 4
308 1 5.34857 19.6114 0 0 0 0 1 -3.3428 0 2
309 1 4.45714 18.72 0.891429 0 0 0 1 -6.96666 0 4
310 1 4.44379 20.4715 2.68626 1.62379 2.53992 -5.82118 1 -7.25533 0.0267482 4
311 1 6.23399 18.6949 2.6655 -0.929898 -3.66014 0.602553 1 -7.39899 0.00910261 4
312 1 6.24 20.5029 0.891429 0 0 0 1 -7.00776 0 4
313 1 7.13143 17.8286 0 0 0 0 1 -3.32245 0 2
314 1 7.14711 19.591 1.77163 -2.11575 -5.20086 -4.28204 1 -7.35702 0.0310349 4
315 1 8.02286 18.72 0.891429 0 0 0 1 -7.03283 0 4
316 1 8.04497 20.4817 2.66839 -0.0945813 -0.216414 9.12303 1 -7.37811 0.051839 4
317 1 5.38482 19.5817 3.55546 9.55401 -1.85014 -2.96641 1 -7.38367 0.0644222 4
318 1 7.12547 17.8424 3.54634 -4.42389 -7.88429 -0.336941 1 -7.34533 0.0509433 4
320 1 8.90115 21.3601 1.79469 -3.43605 1.29453 3.02107 1 -7.32697 0.0140725 4
321 1 12.4832 21.4129 1.78605 0.806182 0.929363 -3.45727 1 -7.28901 0.00838183 4
322 1 8.91303 17.8206 1.78173 -9.21787 -2.19103 -3.9482 1 -7.28393 0.0655776 4
323 1 8.91429 19.6114 0 0 0 0 1 -3.32709 0 2
324 1 9.83385 18.6999 2.68703 5.32833 -1.46217 -4.64931 1 -7.32936 0.0324565 4
325 1 9.80572 20.5029 0.891429 0 0 0 1 -7.03142 0 4
326 1 10.6971 17.8286 0 0 0 0 1 -3.32595 0 2
327 1 10.6672 19.622 1.75762 -1.35799 -0.101198 -3.15566 1 -7.36622 0.00735245 4
328 1 12.496 17.8215 1.77561 -2.54215 4.19784 -6.13694 1 -7.40608 0.0384325 4
329 1 12.48 19.6114 0 0 0 0 1 -3.33557 0 2
330 1 11.5886 18.72 0.891429 0 0 0 1 -7.02454 0 4
331 1 11.5626 20.4828 2.69015 -8.99516 2.32951 1.50757 1 -7.26607 0.0551546 4
332 1 8.93464 19.5584 3.54753 -7.88102 -4.46519 2.37346 1 -7.34977 0.0545754 4
333 1 10.7238 17.8073 3.59749 5.0986 2.11643 1.57482 1 -7.34154 0.0205121 4
334 1 12.5232 19.6096 3.57501 0.726881 -1.05645 -5.89147 1 -7.32905 0.0226276 4
335 1 16.0508 21.3831 1.76161 0.0290455 0.103287 2.72137 1 -7.37885 0.00461675 4
337 1 13.4008 18.6982 2.682 3.41703 8.6184 4.57621 1 -7.31219 0.066534 4
338 1 13.3714 20.5029 0.891429 0 0 0 1 -7.01649 0 4
339 1 14.2629 17.8286 0 0 0 0 1 -3.33593 0 2
340 1 14.2768 19.6286 1.76578 -3.73433 -2.25892 -3.88411 1 -7.36078 0.021246 4
341 1 16.0888 17.8329 1.76297 -4.58991 -1.99561 0.829426 1 -7.36672 0.0160198 4
342 1 16.0457 19.6114 0 0 0 0 1 -3.3106 0 2
343 1 15.1543 18.72 0.891429 0 0 0 1 -7.00953 0 4
344 1 15.1589 20.5129 2.6555 -5.65083 0.153601 0.995842 1 -7.37081 0.0205072 4
345 1 16.9876 18.6944 2.68481 4.10696 0.755424 3.62616 1 -7.39386 0.019038 4
346 1 16.9371 20.5029 0.891429 0 0 0 1 -7.05606 0 4
347 1 14.2685 17.7961 3.56886 1.98749 -6.88478 -5.97772 1 -7.30457 0.054203 4
348 1 16.0453 19.5944 3.56803 5.7832 1.38167 -1.59176 1 -7.31725 0.0235826 4
304 1 21.4229 17.8494 3.59591 -1.63843 -0.117491 -0.574522 1 -7.33807 0.00188491 4
351 1 17.8286 17.8286 0 0 0 0 1 -3.32081 0 2
352 1 17.8337 19.6069 1.79253 -0.37379 -1.18642 6.03492 1 -7.35349 0.023632 4
353 1 19.6105 17.7805 1.77954 -1.40185 5.43227 2.60775 1 -7.33405 0.0238234 4
354 1 19.6114 19.6114 0 0 0 0 1 -3.35284 0 2
355 1 18.72 18.72 0.891429 0 0 0 1 -6.98786 0 4
356 1 18.7615 20.494 2.67258 3.77235 -0.998175 12.2532 1 -7.31514 0.102929 4
357 1 20.5074 18.6816 2.71277 -0.636805 0.881007 6.74321 1 -7.27314 0.0290378 4
358 1 20.5029 20.5029 0.891429 0 0 0 1 -6.96284 0 4
359 1 17.8462 17.8292 3.58173 5.20725 -3.6906 -2.48204 1 -7.37267 0.0291896 4
360 1 19.6209 19.5851 3.59322 -6.76991 -3.34069 -3.34227 1 -7.33819 0.0424262 4
361 1 0.918521 0.908622 4.47377 4.54489 0.430285 -10.001 1 -7.29985 0.0752274 4
362 1 0.896598 2.72328 6.29572 4.76634 -4.65068 -1.53621 1 -7.2922 0.0290715 4
363 1 2.71047 0.898865 6.29837 -3.52318 6.37911 -3.43006 1 -7.34787 0.0403775 4
364 1 2.74009 2.66644 4.50926 2.72317 14.5135 2.9409 1 -7.30541 0.141108 4
365 1 3.61032 1.78304 5.40032 2.98265 -2.04945 -3.62474 1 -7.39352 0.0163295 4
366 1 1.7823 3.5925 5.36728 -5.83619 -5.28056 -1.06392 1 -7.2543 0.039261 4
367 1 1.82034 1.80887 7.16854 -6.17681 -0.0418374 -4.18489 1 -7.36805 0.0346492 4
368 1 0.946426 0.918515 8.06873 -3.61849 -3.08132 3.29701 1 -7.32491 0.0208253 4
369 1 2.70321 2.64269 8.0889 1.16047 3.20058 -6.71537 1 -7.34124 0.0352833 4
370 1 3.5776 3.53241 7.22652 -3.69479 -8.20662 -4.81506 1 -7.38467 0.0648475 4
411 1 0.0243993 1.79668 5.38861 0.961625 2.76319 -4.67047 1 -7.27783 0.0189051 4
371 1 -0.0519407 3.57126 7.20315 -4.62813 -2.10496 2.22733 1 -7.28153 0.0191778 4
651 1 3.56947 -0.0236629 7.19164 3.88005 -3.16505 4.53515 1 -7.34391 0.0284075 4
710 1 0.001911 0.0156438 7.18105 -5.70051 -2.96479 -9.41937 1 -7.34998 0.0809218 4
652 1 1.80514 0.0101096 5.40682 -8.06388 0.723454 -6.43475 1 -7.32493 0.0665719 4
372 1 4.47154 0.856571 4.50435 -6.4477 5.84206 -0.0295001 1 -7.25555 0.0471197 4
373 1 4.4792 2.66651 6.33451 -9.1596 1.97617 5.1358 1 -7.3648 0.0710686 4
374 1 6.24769 0.859313 6.22733 4.46888 1.26865 -0.456342 1 -7.31966 0.0135618 4
375 1 6.25396 2.65831 4.46296 -1.09183 -4.78594 2.51437 1 -7.29842 0.0189338 4
376 1 7.19542 1.78706 5.39378 -2.9466 -1.40767 3.72279 1 -7.33428 0.0152639 4
377 1 8.03969 0.874773 4.51017 -1.63434 -2.73894 -0.123209 1 -7.28991 0.0063413 4
378 1 7.99831 2.69248 6.25191 -7.1676 0.239823 4.39089 1 -7.36931 0.044013 4
379 1 5.36648 3.52883 5.3614 3.8971 1.93165 5.38834 1 -7.35923 0.0298471 4
380 1 5.37045 1.7501 7.1565 -5.86098 -1.999 2.06324 1 -7.34177 0.0265179 4
381 1 4.50937 0.871544 8.08274 -1.56899 -1.07896 -6.01819 1 -7.34939 0.0248002 4
382 1 6.25237 2.64212 8.06641 11.3963 -0.0891192 -1.27104 1 -7.29865 0.0818492 4
383 1 7.99018 0.903491 8.05125 1.04235 -4.34395 1.75725 1 -7.3683 0.0143434 4
384 1 7.13278 3.57217 7.15462 1.39498 -4.52429 6.78626 1 -7.32063 0.0426166 4
665 1 7.10336 -0.0256677 7.16887 -7.19749 -1.84921 -2.9819 1 -7.27523 0.039907 4
386 1 9.80057 0.876782 6.25646 3.26035 1.13303 1.39427 1 -7.29345 0.00862533 4
387 1 9.80759 2.64649 4.44018 0.82646 3.50803 5.7836 1 -7.36279 0.028905 4
388 1 10.7319 1.78042 5.32716 0.96179 1.40855 -3.49587 1 -7.32277 0.00941738 4
389 1 11.6126 0.883841 4.43928 -0.997058 3.51056 -0.757821 1 -7.36591 0.00864703 4
390 1 11.6169 2.67283 6.24509 1.9013 -4.02965 0.487825 1 -7.34726 0.0125052 4
391 1 8.881 3.52431 5.35441 -0.45314 3.06427 -7.41797 1 -7.3157 0.040222 4
392 1 12.5043 3.54322 5.38411 0.15295 -0.714522 -1.04537 1 -7.32538 0.00101252 4
393 1 8.87746 1.80842 7.16825 -5.55646 -9.82725 -6.51114 1 -7.33292 0.105715 4
394 1 9.81559 2.65628 8.03158 -2.42425 -4.453 -6.07977 1 -7.32992 0.0390073 4
395 1 12.4866 1.76891 7.15731 2.6723 -1.80767 4.83335 1 -7.30251 0.0210194 4
396 1 11.5958 0.916753 8.06619 8.80174 5.55097 3.21387 1 -7.38293 0.0738277 4
397 1 10.7114 3.55529 7.17105 -7.45359 1.23975 -10.6447 1 -7.36455 0.106063 4
398 1 13.3845 0.905502 6.2202 3.88567 -0.105284 1.38888 1 -7.32826 0.0106052 4
399 1 13.3805 2.63264 4.47158 -2.66949 9.32284 -2.32907 1 -7.27332 0.0619103 4
400 1 14.3095 1.79552 5.37583 7.03108 -2.62291 4.59908 1 -7.37977 0.0482176 4
401 1 15.1838 0.90216 4.46535 -10.3888 -6.9679 -3.53896 1 -7.33873 0.105192 4
402 1 15.2353 2.64425 6.27571 4.16221 2.09829 -2.60074 1 -7.36253 0.0177333 4
403 1 17.0062 0.853536 6.26795 8.51414 -4.30329 -0.990904 1 -7.28052 0.0572574 4
404 1 16.955 2.6753 4.45354 -0.240213 -2.36536 1.59537 1 -7.34609 0.00510253 4
405 1 16.0909 3.55511 5.37751 2.83114 -0.236983 -0.343559 1 -7.2781 0.00509737 4
406 1 13.3883 2.70426 8.05615 -1.29707 0.453984 0.757413 1 -7.31296 0.00153251 4
407 1 16.0803 1.78514 7.18065 5.35987 1.82904 2.83538 1 -7.33702 0.0249673 4
408 1 15.1795 0.860758 8.08948 -1.16745 -1.52928 0.70172 1 -7.30113 0.00261048 4
409 1 16.9447 2.6722 8.05341 0.208909 -4.31188 -0.842876 1 -7.33634 0.0120417 4
410 1 14.2971 3.5518 7.20653 11.6443 -3.83952 -9.97243 1 -7.32266 0.15547 4
412 1 17.8536 1.75762 5.38089 7.05657 -6.95248 6.69767 1 -7.34081 0.0890013 4
413 1 18.7717 0.915792 4.49077 -6.54573 2.24423 -2.26848 1 -7.3321 0.0330067 4
414 1 18.7433 2.6478 6.26699 -2.54278 6.31506 -7.42122 1 -7.36398 0.0631266 4
415 1 20.5053 0.883369 6.29287 -3.63107 -3.12568 -2.90893 1 -7.29883 0.0195544 4
416 1 20.5132 2.69442 4.45534 -6.58569 -0.871414 4.64108 1 -7.29824 0.0408749 4
417 1 19.6507 3.56461 5.41927 -1.96752 -3.09318 -5.98696 1 -7.31099 0.0306747 4
418 1 19.5971 1.81075 7.16892 -2.90964 2.60939 -0.943708 1 -7.35746 0.0100618 4
419 1 18.769 0.914597 8.07688 9.1345 -0.630948 -0.363193 1 -7.29825 0.0522645 4
420 1 20.4984 2.66559 8.03426 -1.63053 -6.13232 6.78102 1 -7.36515 0.0536819 4
421 1 17.8605 3.56725 7.1606 -5.98827 -5.48959 -0.761606 1 -7.33377 0.0414381 4
423 1 0.885661 4.47602 4.50542 -4.32564 5.35768 -6.59135 1 -7.41179 0.0565548 4
424 1 0.906309 6.2484 6.29754 2.57387 0.159043 -0.250406 1 -7.38585 0.00417824 4
425 1 2.6642 4.44365 6.35463 -2.39672 2.40437 -4.27235 1 -7.2412 0.0185347 4
426 1 2.67495 6.2858 4.46161 -5.21456 1.54123 3.61985 1 -7.32165 0.0265592 4
427 1 3.5762 5.33811 5.37864 0.974898 -3.28022 2.98748 1 -7.15585 0.0128439 4
428 1 1.80467 7.1385 5.40367 0.506919 -5.53246 -8.37418 1 -7.38402 0.0628601 4
429 1 0.875267 8.02276 4.53838 0.601665 -0.247235 2.09922 1 -7.30094 0.00300623 4
430 1 2.65236 8.04482 6.30688 7.51545 1.37739 -1.80346 1 -7.37885 0.0383612 4
431 1 1.74735 5.35709 7.17199 1.1768 3.38803 2.06533 1 -7.38883 0.0106617 4
432 1 0.903283 4.50141 8.05651 6.45598 -1.713 -0.558974 1 -7.28561 0.0279634 4
433 1 2.66963 6.27926 8.05299 3.32691 0.194352 3.46107 1 -7.2741 0.0143688 4
434 1 0.874275 8.06705 8.0923 -3.03811 -4.42304 4.66385 1 -7.30044 0.0314605 4