ITEM: TIMESTEP
49126450
ITEM: NUMBER OF ATOMS
3060
ITEM: BOX BOUNDS pp pp mm
0.0000000000000000e+00 2.1394294200000001e+01
0.0000000000000000e+00 2.1394294200000001e+01
-5.3491084073550004e-03 5.3485735499999997e+01
ITEM: ATOMS id type x y z vx vy vz c_clusts c_atom_pe c_atom_ke c_atom_coord
1 1 0 0 0 0 0 0 1 -3.33719 0 2
2 1 1.78286 1.78286 0 0 0 0 1 -3.32821 0 2
3 1 0.891429 0.891429 0.891429 0 0 0 1 -7.02884 0 4
4 1 0.890986 2.67861 2.68982 4.75137 -7.41691 2.46042 1 -7.37674 0.0520596 4
5 1 2.66143 0.896582 2.71402 -1.28226 -0.595522 0.511958 1 -7.31287 0.00140727 4
6 1 2.67429 2.67429 0.891429 0 0 0 1 -7.00181 0 4
7 1 3.56572 0 0 0 0 0 1 -3.34153 0 2
8 1 3.5831 1.77135 1.80692 -1.39358 8.40831 -1.80257 1 -7.31944 0.0472365 4
9 1 0 3.56572 0 0 0 0 1 -3.32431 0 2
10 1 1.79526 3.55945 1.76692 6.1957 0.0383464 -7.67988 1 -7.31444 0.0606049 4
11 1 3.56572 3.56572 0 0 0 0 1 -3.30618 0 2
12 1 1.73943 1.80447 3.56389 -5.8155 -1.88304 -2.57749 1 -7.36487 0.0273925 4
13 1 3.60369 3.5356 3.57406 4.76647 -7.69581 -0.238458 1 -7.4288 0.0510399 4
292 1 1.79587 0.00968006 1.77892 5.33631 -0.933388 -3.27153 1 -7.31228 0.0249284 4
56 1 -0.0191289 3.57164 3.54884 -0.538918 4.4373 -3.43729 1 -7.32143 0.0197901 4
55 1 0.0285893 1.78066 1.77509 3.56313 2.65031 -4.11483 1 -7.31679 0.0228131 4
291 1 3.5612 -0.0404355 3.56809 -5.41567 -1.64221 -1.24721 1 -7.3431 0.0209022 4
14 1 5.34857 1.78286 0 0 0 0 1 -3.30313 0 2
15 1 4.45714 0.891429 0.891429 0 0 0 1 -6.98573 0 4
16 1 4.47416 2.64034 2.64187 6.30784 6.63712 -1.19236 1 -7.3571 0.0530692 4
17 1 6.24762 0.876032 2.65726 6.93183 -3.83133 -10.721 1 -7.33088 0.110585 4
18 1 6.24 2.67429 0.891429 0 0 0 1 -6.9897 0 4
19 1 7.13143 0 0 0 0 0 1 -3.33441 0 2
20 1 7.15501 1.7666 1.74996 -4.38882 -1.50078 2.95033 1 -7.33391 0.0188088 4
21 1 8.02286 0.891429 0.891429 0 0 0 1 -7.06433 0 4
22 1 8.02923 2.68969 2.65017 1.30637 2.93491 1.95901 1 -7.3156 0.00881232 4
23 1 5.32678 3.50159 1.72899 -1.17988 -4.22464 1.38345 1 -7.39278 0.0131666 4
24 1 7.13143 3.56572 0 0 0 0 1 -3.32482 0 2
25 1 5.31702 1.73742 3.54553 0.678195 1.41398 6.26217 1 -7.37965 0.025939 4
26 1 7.11009 3.52312 3.52949 -7.64791 0.291603 -3.28213 1 -7.34946 0.0431639 4
306 1 7.1704 -0.00755952 3.55276 -5.00158 -4.75028 3.91383 1 -7.29166 0.03915 4
28 1 8.91429 1.78286 0 0 0 0 1 -3.34162 0 2
29 1 9.8192 0.865543 2.6714 5.99658 -3.40274 1.10372 1 -7.28836 0.0303469 4
30 1 9.80572 2.67429 0.891429 0 0 0 1 -7.01619 0 4
31 1 10.6971 0 0 0 0 0 1 -3.32994 0 2
32 1 10.7075 1.77181 1.81519 7.93018 2.2387 -6.05301 1 -7.32727 0.0650675 4
33 1 12.48 1.78286 0 0 0 0 1 -3.33189 0 2
34 1 11.5886 0.891429 0.891429 0 0 0 1 -7.00552 0 4
35 1 11.6019 2.68213 2.72573 -2.58466 -6.60539 2.97854 1 -7.31377 0.0368373 4
36 1 8.93023 3.53998 1.76016 -2.23958 -6.15825 5.94763 1 -7.38005 0.0487447 4
37 1 10.6971 3.56572 0 0 0 0 1 -3.33083 0 2
38 1 12.4895 3.56039 1.77609 -1.39587 -4.64007 -8.11635 1 -7.35833 0.0556162 4
39 1 8.94356 1.79952 3.59628 -0.303782 -6.21829 -1.88433 1 -7.27991 0.0263349 4
40 1 12.4914 1.7422 3.54899 1.70406 -8.38447 1.86621 1 -7.31966 0.0477314 4
41 1 10.7282 3.57148 3.58374 1.09102 1.7944 0.944587 1 -7.39503 0.00330038 4
319 1 10.7087 -0.02908 3.59268 4.31137 4.00352 1.35539 1 -7.31722 0.0226894 4
320 1 8.86786 0.0133598 1.78814 9.31353 -1.0392 5.17754 1 -7.34318 0.0713479 4
321 1 12.4689 -0.0336292 1.74329 -5.28634 -5.09991 1.59044 1 -7.34127 0.0351571 4
42 1 13.3254 0.873044 2.65338 -2.59176 -4.53453 -2.03007 1 -7.39516 0.0195445 4
43 1 13.3714 2.67429 0.891429 0 0 0 1 -7.01077 0 4
44 1 14.2629 0 0 0 0 0 1 -3.31839 0 2
45 1 14.2556 1.75872 1.75567 7.29438 0.0277378 8.78349 1 -7.33701 0.0811385 4
46 1 16.0457 1.78286 0 0 0 0 1 -3.33512 0 2
47 1 15.1543 0.891429 0.891429 0 0 0 1 -7.02499 0 4
48 1 15.1509 2.70279 2.64519 -0.977431 -1.02719 -7.95793 1 -7.32305 0.0406688 4
49 1 16.9462 0.921086 2.65495 -1.20347 -4.27222 -1.89466 1 -7.31959 0.0144963 4
50 1 16.9371 2.67429 0.891429 0 0 0 1 -7.00444 0 4
51 1 14.2629 3.56572 0 0 0 0 1 -3.33028 0 2
52 1 16.0342 3.56459 1.76982 -6.86268 5.46776 -1.92617 1 -7.34139 0.0502317 4
53 1 16.0434 1.80734 3.54818 2.53579 -1.7465 2.37576 1 -7.30367 0.00941404 4
54 1 14.2456 3.60531 3.55098 1.12309 -9.93503 6.0166 1 -7.33161 0.084753 4
336 1 14.2478 -0.0166006 3.56668 -0.656373 7.02038 2.47822 1 -7.32476 0.0347675 4
57 1 17.8286 0 0 0 0 0 1 -3.34781 0 2
58 1 17.8543 1.78788 1.78417 -4.07173 1.92097 2.94119 1 -7.35541 0.0180004 4
59 1 19.6114 1.78286 0 0 0 0 1 -3.33083 0 2
60 1 18.72 0.891429 0.891429 0 0 0 1 -7.02448 0 4
61 1 18.7601 2.68633 2.68973 -1.95761 -3.94199 -0.927166 1 -7.34472 0.0125924 4
62 1 20.5085 0.877986 2.67665 0.181911 -2.27632 3.1049 1 -7.34638 0.00924622 4
63 1 20.5029 2.67429 0.891429 0 0 0 1 -7.01404 0 4
64 1 17.8286 3.56572 0 0 0 0 1 -3.34013 0 2
65 1 19.6416 3.57523 1.77121 5.15386 -1.08841 3.70385 1 -7.37173 0.0258091 4
66 1 19.616 1.80859 3.55786 -7.0137 -0.365261 -1.48683 1 -7.36726 0.0320774 4
67 1 17.8107 3.57142 3.56814 -1.47324 2.71783 -8.93632 1 -7.35292 0.0556542 4
68 1 19.6238 0.0193087 1.76133 -2.20862 2.27498 -2.1201 1 -7.36614 0.00905528 4
69 1 1.78286 5.34857 0 0 0 0 1 -3.32509 0 2
70 1 0.891429 4.45714 0.891429 0 0 0 1 -7.01907 0 4
71 1 0.884192 6.24218 2.69336 6.19422 -4.02142 7.64065 1 -7.33364 0.0702842 4
72 1 2.71064 4.43386 2.68479 1.73074 12.1689 0.473943 1 -7.29079 0.094174 4
73 1 2.67429 6.24 0.891429 0 0 0 1 -6.9992 0 4
74 1 3.56206 5.3856 1.75791 2.59945 6.19278 1.02158 1 -7.34783 0.0287257 4
75 1 0 7.13143 0 0 0 0 1 -3.34096 0 2
76 1 1.75216 7.15701 1.80207 -5.02475 -3.82246 1.36985 1 -7.30238 0.0259775 4
77 1 0.891429 8.02286 0.891429 0 0 0 1 -7.06305 0 4
78 1 2.69021 8.00509 2.72129 4.75349 8.34489 -1.87986 1 -7.27702 0.0596077 4
79 1 3.56572 7.13143 0 0 0 0 1 -3.32335 0 2
80 1 1.74533 5.30859 3.51497 -0.0782624 2.485 4.72561 1 -7.3188 0.017747 4
81 1 3.50577 7.13416 3.58766 -1.33575 -2.51271 0.305089 1 -7.38709 0.00509832 4
128 1 0.0181333 5.37423 1.78181 -4.68781 1.14209 1.49787 1 -7.33762 0.0158865 4
82 1 -0.0590447 7.12486 3.57184 -0.247418 5.85524 1.68432 1 -7.34505 0.023143 4
83 1 5.34857 5.34857 0 0 0 0 1 -3.32076 0 2
84 1 4.45714 4.45714 0.891429 0 0 0 1 -6.9994 0 4
85 1 4.43793 6.26712 2.65047 -1.86973 -4.33596 5.83695 1 -7.31632 0.0350839 4
86 1 6.22457 4.38252 2.62457 -0.801685 -5.93945 8.17385 1 -7.27658 0.0639429 4
87 1 6.24 6.24 0.891429 0 0 0 1 -7.00491 0 4
88 1 7.13082 5.30202 1.78497 -3.75862 3.60393 0.54757 1 -7.32875 0.017064 4
89 1 8.02286 4.45714 0.891429 0 0 0 1 -7.00161 0 4
90 1 8.02287 6.23912 2.68026 4.7752 7.35943 -4.07997 1 -7.33287 0.0582652 4
91 1 5.36468 7.13545 1.77641 -4.99328 -2.2943 -0.750284 1 -7.37171 0.0191456 4
92 1 4.45714 8.02286 0.891429 0 0 0 1 -7.00415 0 4
93 1 6.2258 8.01593 2.6625 8.44029 -2.5582 -7.47817 1 -7.34161 0.0832221 4
94 1 7.13143 7.13143 0 0 0 0 1 -3.3281 0 2
95 1 8.02286 8.02286 0.891429 0 0 0 1 -7.04146 0 4
96 1 5.33834 5.36346 3.52613 3.09269 -6.94346 0.697324 1 -7.24424 0.0362642 4
97 1 7.15209 7.12513 3.57631 -6.85876 -2.92018 5.70283 1 -7.36143 0.0548309 4
98 1 8.91429 5.34857 0 0 0 0 1 -3.33103 0 2
99 1 9.79971 4.42646 2.6598 2.76762 -0.81588 -0.114104 1 -7.35371 0.00519005 4
100 1 9.80572 6.24 0.891429 0 0 0 1 -6.9793 0 4
101 1 10.6952 5.29213 1.78854 4.18864 -2.54442 -3.0154 1 -7.32348 0.0206094 4
102 1 12.48 5.34857 0 0 0 0 1 -3.33723 0 2
103 1 11.5886 4.45714 0.891429 0 0 0 1 -7.03964 0 4
104 1 11.5554 6.22447 2.68425 -3.5802 3.17177 6.52033 1 -7.38464 0.0407021 4
105 1 8.93034 7.14517 1.7593 0.666575 -1.38308 1.2031 1 -7.33206 0.00236812 4
106 1 9.83932 8.02222 2.65666 1.05385 2.32385 0.690588 1 -7.32762 0.0043494 4
107 1 10.6971 7.13143 0 0 0 0 1 -3.31505 0 2
108 1 12.4575 7.07697 1.80445 -4.06086 1.69535 -3.58974 1 -7.31965 0.0200739 4
109 1 11.5886 8.02286 0.891429 0 0 0 1 -6.96081 0 4
110 1 8.93861 5.3585 3.54324 1.34103 5.98056 -0.0390973 1 -7.34749 0.0233826 4
111 1 12.4409 5.36397 3.56619 -0.922599 -1.13595 -2.42342 1 -7.25906 0.00498846 4
112 1 10.6632 7.14242 3.56609 3.51013 5.65739 1.14631 1 -7.39404 0.0284082 4
113 1 13.3667 4.43648 2.66954 -3.89364 -1.27873 4.12036 1 -7.31531 0.0210212 4
114 1 13.3714 6.24 0.891429 0 0 0 1 -7.02701 0 4
115 1 14.2508 5.36228 1.77976 0.610463 1.97352 -8.57534 1 -7.27587 0.0484272 4
116 1 16.0457 5.34857 0 0 0 0 1 -3.34419 0 2
117 1 15.1543 4.45714 0.891429 0 0 0 1 -7.00151 0 4
118 1 15.2113 6.25777 2.64936 -4.11039 0.692014 6.85067 1 -7.27879 0.0400257 4
119 1 16.9658 4.43631 2.7109 -1.91147 -5.43401 4.04232 1 -7.32753 0.0308241 4
120 1 16.9371 6.24 0.891429 0 0 0 1 -6.9928 0 4
121 1 13.3475 8.02493 2.64577 -6.99585 -0.764415 -7.96716 1 -7.30693 0.0703353 4
122 1 14.2629 7.13143 0 0 0 0 1 -3.36858 0 2
123 1 16.0771 7.14851 1.75193 2.7212 -4.50528 -4.58589 1 -7.39667 0.0303326 4
124 1 15.1543 8.02286 0.891429 0 0 0 1 -7.03182 0 4
125 1 16.9887 8.02088 2.66842 7.69021 -2.13013 0.229317 1 -7.27547 0.0396668 4
126 1 16.0163 5.35007 3.56268 6.69953 2.60927 -1.76136 1 -7.35795 0.0341055 4
127 1 14.2182 7.09785 3.53754 -2.75951 -4.5058 1.31937 1 -7.21451 0.0184598 4
129 1 17.8496 5.34266 1.81598 -2.42268 -2.53138 -10.7288 1 -7.36664 0.0792878 4
130 1 19.6114 5.34857 0 0 0 0 1 -3.32008 0 2
131 1 18.72 4.45714 0.891429 0 0 0 1 -7.00748 0 4
132 1 18.7229 6.21522 2.66493 0.124728 4.24153 -0.234413 1 -7.385 0.0112417 4
133 1 20.5146 4.45225 2.6427 3.64869 6.7566 9.19281 1 -7.34052 0.0893009 4
134 1 20.5029 6.24 0.891429 0 0 0 1 -6.99588 0 4
135 1 17.8286 7.13143 0 0 0 0 1 -3.3263 0 2
136 1 19.5607 7.11711 1.7808 -1.79438 -4.98645 5.44984 1 -7.34791 0.0359671 4
137 1 18.72 8.02286 0.891429 0 0 0 1 -7.02874 0 4
138 1 20.4688 8.01846 2.65896 0.241168 6.48624 -5.25736 1 -7.33729 0.0434263 4
139 1 19.6053 5.35316 3.55588 3.85809 0.0696275 3.15755 1 -7.30701 0.0154734 4
140 1 17.8807 7.14187 3.57753 -2.05099 10.2835 -0.842505 1 -7.30543 0.0688816 4
141 1 1.78286 8.91429 0 0 0 0 1 -3.34308 0 2
142 1 0.870567 9.81261 2.66457 0.658019 -2.83643 -1.41549 1 -7.3489 0.00652424 4
143 1 2.67429 9.80572 0.891429 0 0 0 1 -7.03049 0 4
144 1 3.54667 8.92217 1.76241 3.34891 -4.36435 3.02049 1 -7.32071 0.024515 4
145 1 0 10.6971 0 0 0 0 1 -3.33762 0 2
146 1 1.7808 10.6858 1.81656 -1.13888 9.12534 -3.68653 1 -7.34052 0.061097 4
147 1 1.78286 12.48 0 0 0 0 1 -3.31791 0 2
148 1 0.891429 11.5886 0.891429 0 0 0 1 -7.01207 0 4
149 1 2.67291 11.5539 2.68681 6.16217 0.788355 1.68121 1 -7.40868 0.0257811 4
150 1 3.56572 10.6971 0 0 0 0 1 -3.34112 0 2
151 1 3.56264 12.4649 1.76716 0.115078 -1.24339 5.47134 1 -7.28523 0.0196032 4
152 1 1.79175 8.89374 3.57309 -2.27227 -0.14793 0.845902 1 -7.30262 0.00367271 4
153 1 1.80016 12.4441 3.5483 0.110111 2.38034 -3.20081 1 -7.27158 0.00991109 4
154 1 3.55836 10.6797 3.56033 -0.431687 -0.426467 -3.03805 1 -7.34536 0.00597402 4
205 1 0.021523 8.88733 1.77539 7.79864 -5.71945 -1.6322 1 -7.3499 0.0598743 4
204 1 0.0274687 12.5029 1.75508 12.8013 -1.76385 -1.01066 1 -7.36126 0.104571 4
155 1 5.34857 8.91429 0 0 0 0 1 -3.3143 0 2
156 1 4.43544 9.81122 2.69661 -7.63009 2.34331 -3.58174 1 -7.34146 0.0476394 4
157 1 6.24 9.80572 0.891429 0 0 0 1 -6.94382 0 4
158 1 7.1097 8.89189 1.76419 5.51438 8.33472 4.23454 1 -7.39821 0.0733263 4
159 1 7.96856 9.79194 2.64224 13.4693 6.13892 -3.42202 1 -7.30228 0.143668 4
160 1 5.30791 10.7055 1.83649 -2.97279 1.98519 -1.5874 1 -7.32948 0.00952204 4
161 1 5.34857 12.48 0 0 0 0 1 -3.34964 0 2
162 1 4.45714 11.5886 0.891429 0 0 0 1 -7.00697 0 4
163 1 6.2527 11.5861 2.66243 -8.71039 3.13873 -5.91805 1 -7.30332 0.0751554 4
164 1 7.13143 10.6971 0 0 0 0 1 -3.35248 0 2
165 1 7.12363 12.4835 1.7909 -1.48213 -1.13844 5.64055 1 -7.38458 0.021977 4
166 1 8.02286 11.5886 0.891429 0 0 0 1 -7.01806 0 4
167 1 5.30411 8.86561 3.59558 -3.91115 0.856351 2.24883 1 -7.33236 0.0131255 4
168 1 5.33497 12.4496 3.63681 -5.33129 2.44671 1.04266 1 -7.28984 0.0220937 4
169 1 7.11676 10.7 3.57948 -5.79026 3.49073 -3.47675 1 -7.33897 0.0359763 4
170 1 8.91429 8.91429 0 0 0 0 1 -3.31736 0 2
171 1 9.80572 9.80572 0.891429 0 0 0 1 -6.96884 0 4
172 1 10.6955 8.88561 1.77557 -4.34507 7.19517 1.44531 1 -7.38725 0.0452746 4
173 1 12.48 8.91429 0 0 0 0 1 -3.37317 0 2
174 1 11.6223 9.76962 2.66592 8.48936 6.99219 0.709324 1 -7.31823 0.0756018 4
175 1 8.86916 10.7388 1.78173 -4.07851 -1.94089 0.444696 1 -7.29916 0.0128214 4
176 1 8.91429 12.48 0 0 0 0 1 -3.34625 0 2
177 1 9.8104 11.6104 2.67744 -0.709995 6.02872 7.35893 1 -7.28008 0.0566429 4
178 1 10.6971 10.6971 0 0 0 0 1 -3.33989 0 2
179 1 10.6778 12.529 1.79749 3.06304 -2.57824 -2.48589 1 -7.33528 0.0138236 4
180 1 12.5171 10.6919 1.79484 5.81239 0.833099 -3.52348 1 -7.38455 0.0291873 4
181 1 12.48 12.48 0 0 0 0 1 -3.31749 0 2
182 1 11.5886 11.5886 0.891429 0 0 0 1 -6.95792 0 4
183 1 8.86458 8.91277 3.56914 -4.08248 -0.0858648 5.08088 1 -7.3184 0.0264465 4
184 1 12.4726 8.9218 3.54614 -2.25272 3.02052 4.86917 1 -7.35794 0.0235944 4
185 1 8.90038 12.4986 3.57473 -3.50319 3.47808 4.20923 1 -7.33173 0.0261961 4
186 1 10.7002 10.6388 3.59011 7.77939 3.94591 2.79002 1 -7.29532 0.0522049 4
187 1 12.4846 12.4694 3.58119 -4.65338 5.82362 8.93069 1 -7.31246 0.0842303 4
188 1 13.3714 9.80572 0.891429 0 0 0 1 -6.95671 0 4
189 1 14.3058 8.93593 1.78656 -6.30868 0.948141 -4.48842 1 -7.36758 0.0378711 4
190 1 16.0457 8.91429 0 0 0 0 1 -3.33343 0 2
191 1 15.1637 9.83138 2.61383 -7.11231 -0.376866 -5.69324 1 -7.31774 0.0517485 4
192 1 16.9371 9.80572 0.891429 0 0 0 1 -6.98189 0 4
193 1 13.413 11.5566 2.64377 -2.00083 4.43417 -6.85567 1 -7.31433 0.043984 4
194 1 14.2629 10.6971 0 0 0 0 1 -3.34118 0 2
195 1 14.3037 12.4485 1.77697 -4.71639 -1.16637 -3.37216 1 -7.32255 0.0217701 4
196 1 16.0869 10.7554 1.77152 -5.5796 0.720846 -2.89725 1 -7.32206 0.0249254 4
197 1 16.0457 12.48 0 0 0 0 1 -3.32254 0 2
198 1 15.1543 11.5886 0.891429 0 0 0 1 -7.01881 0 4
199 1 16.9044 11.583 2.72069 -2.94355 1.85395 3.94354 1 -7.40183 0.017212 4
200 1 16.0676 8.92127 3.52962 -6.06152 -1.94323 5.94183 1 -7.32252 0.0471945 4
201 1 14.3059 10.7135 3.53714 0.986272 -0.561202 6.29358 1 -7.27925 0.0254553 4
202 1 16.0289 12.4798 3.59368 -0.943829 0.634256 0.985014 1 -7.32635 0.00140877 4
203 1 21.4127 10.7415 3.59019 2.93811 -4.99333 -0.480515 1 -7.29878 0.0210359 4
206 1 17.888 8.92095 1.79164 -7.60935 -5.01047 4.0191 1 -7.31138 0.0617199 4
207 1 19.6114 8.91429 0 0 0 0 1 -3.34524 0 2
208 1 18.718 9.80779 2.73285 4.64571 -2.10944 -3.7999 1 -7.29802 0.0251906 4
209 1 20.5029 9.80572 0.891429 0 0 0 1 -7.00546 0 4
210 1 17.8286 10.6971 0 0 0 0 1 -3.30411 0 2
211 1 17.7964 12.5127 1.8258 -9.49045 4.30342 2.3349 1 -7.2671 0.0709814 4
212 1 19.6575 10.6855 1.79862 -4.48302 -12.3095 5.73534 1 -7.25021 0.127296 4
213 1 19.6114 12.48 0 0 0 0 1 -3.3165 0 2
214 1 18.72 11.5886 0.891429 0 0 0 1 -6.91862 0 4
215 1 20.5247 11.6446 2.70587 -4.63472 1.14231 3.57704 1 -7.30254 0.0221464 4
216 1 19.6373 8.93669 3.59404 -0.589487 1.93516 4.76056 1 -7.32908 0.0166532 4
217 1 17.8002 10.7318 3.59902 -7.69906 -2.47435 -2.08547 1 -7.38192 0.0434124 4
218 1 19.5907 12.4791 3.57818 -4.00001 0.750458 -4.72979 1 -7.3677 0.0242336 4
219 1 0.913329 13.3711 2.64367 -2.30872 4.38722 0.633756 1 -7.32651 0.0155479 4
220 1 2.67429 13.3714 0.891429 0 0 0 1 -7.03085 0 4
221 1 0 14.2629 0 0 0 0 1 -3.304 0 2
222 1 1.78312 14.256 1.76239 4.47322 -4.05146 -1.2974 1 -7.34024 0.0237189 4
223 1 1.78286 16.0457 0 0 0 0 1 -3.31508 0 2
224 1 0.891429 15.1543 0.891429 0 0 0 1 -7.06741 0 4
225 1 0.872623 16.9125 2.6675 -0.48735 2.26312 -2.57098 1 -7.35048 0.00744991 4
226 1 2.69179 15.0913 2.73387 3.63383 -3.48806 -1.11812 1 -7.33867 0.0165699 4
227 1 2.67429 16.9371 0.891429 0 0 0 1 -7.01474 0 4
228 1 3.56572 14.2629 0 0 0 0 1 -3.32061 0 2
229 1 3.525 16.019 1.80444 -5.79089 11.8868 -4.02754 1 -7.31395 0.118915 4
230 1 1.79695 16.0018 3.56281 3.09065 2.9606 4.60379 1 -7.33873 0.0245934 4
231 1 3.57298 14.22 3.58796 -5.38496 -3.3585 2.29974 1 -7.37774 0.0283616 4
233 1 0.00165081 16.0259 1.74474 5.61077 3.34795 0.886365 1 -7.36354 0.0270601 4
232 1 0.0125485 14.2426 3.54223 2.05961 0.61665 -6.89388 1 -7.40266 0.0324582 4
234 1 4.47837 13.3747 2.71947 9.06758 3.51569 2.03693 1 -7.27816 0.0614523 4
235 1 6.24 13.3714 0.891429 0 0 0 1 -7.0377 0 4
236 1 8.00289 13.3951 2.71257 -2.56127 -9.35382 3.41635 1 -7.34299 0.0658064 4
237 1 5.34792 14.2514 1.78118 -2.02631 0.785468 3.97999 1 -7.38286 0.0127991 4
238 1 5.34857 16.0457 0 0 0 0 1 -3.3505 0 2
239 1 4.45714 15.1543 0.891429 0 0 0 1 -6.99152 0 4
240 1 4.45308 16.8965 2.7106 2.27855 -4.54778 -5.28387 1 -7.31601 0.0334824 4
241 1 6.21133 15.1509 2.70602 -2.68539 0.827308 -2.60834 1 -7.2358 0.00914917 4
242 1 6.24 16.9371 0.891429 0 0 0 1 -6.98455 0 4
243 1 7.13143 14.2629 0 0 0 0 1 -3.33838 0 2
244 1 7.16505 16.0617 1.78069 -3.33229 1.47376 -4.0419 1 -7.25762 0.018432 4
245 1 8.02286 15.1543 0.891429 0 0 0 1 -7.0051 0 4
246 1 8.06474 16.9117 2.69885 9.50708 -4.81414 -3.38066 1 -7.36915 0.0777967 4
247 1 5.35321 16.0671 3.59707 2.14466 1.91877 -0.0699225 1 -7.36014 0.00515749 4
248 1 7.14461 14.2776 3.63907 5.06972 -0.613994 3.59192 1 -7.31916 0.0242628 4
249 1 9.80572 13.3714 0.891429 0 0 0 1 -7.05754 0 4
250 1 11.5918 13.3803 2.67518 -1.61877 -0.942017 3.43619 1 -7.36184 0.0095326 4
251 1 8.91348 14.2234 1.77915 4.0001 3.18372 3.13327 1 -7.31415 0.0223788 4
252 1 8.91429 16.0457 0 0 0 0 1 -3.33147 0 2
253 1 9.78614 15.1261 2.70235 0.176907 4.96345 -2.57773 1 -7.29957 0.0194893 4
254 1 9.80572 16.9371 0.891429 0 0 0 1 -7.02152 0 4
255 1 10.6971 14.2629 0 0 0 0 1 -3.3506 0 2
256 1 10.6919 16.06 1.78142 -9.40072 -0.691429 -2.14305 1 -7.36248 0.0581622 4
257 1 12.4695 14.3012 1.77241 -0.125521 1.38086 5.47583 1 -7.38131 0.0198599 4
258 1 12.48 16.0457 0 0 0 0 1 -3.32208 0 2
259 1 11.5886 15.1543 0.891429 0 0 0 1 -7.02184 0 4
260 1 11.5933 16.9276 2.6257 -3.73624 5.32406 -9.05896 1 -7.33952 0.0774111 4
261 1 8.91235 16.0223 3.58292 -0.0788339 -4.34278 6.06159 1 -7.44989 0.0346124 4
262 1 10.6707 14.2201 3.60045 0.65862 1.35244 8.08704 1 -7.30405 0.0421153 4
263 1 12.4963 16.0492 3.52003 2.46108 1.09903 1.7717 1 -7.25498 0.00647552 4
264 1 13.3714 13.3714 0.891429 0 0 0 1 -6.95399 0 4
265 1 15.1452 13.3816 2.71177 6.01302 -9.51157 1.08161 1 -7.36087 0.0795437 4
266 1 16.9371 13.3714 0.891429 0 0 0 1 -7.02589 0 4
267 1 13.3807 15.1359 2.63942 0.493328 5.49579 -1.47163 1 -7.38462 0.020299 4
268 1 13.3714 16.9371 0.891429 0 0 0 1 -7.01625 0 4
269 1 14.2629 14.2629 0 0 0 0 1 -3.3085 0 2
270 1 14.2694 16.0294 1.744 -6.58993 -0.471916 4.91282 1 -7.3201 0.0421916 4
271 1 16.0411 14.2412 1.79175 -3.17901 -0.925947 3.82708 1 -7.30181 0.0159404 4
272 1 16.0457 16.0457 0 0 0 0 1 -3.34419 0 2
273 1 15.1543 15.1543 0.891429 0 0 0 1 -7.01551 0 4
274 1 15.1613 16.9384 2.68218 -3.32211 9.82079 1.75455 1 -7.28356 0.0688172 4
275 1 16.9182 15.1542 2.70471 -2.54202 -7.65701 -2.30837 1 -7.33305 0.0438314 4
276 1 16.9371 16.9371 0.891429 0 0 0 1 -7.057 0 4
277 1 14.2845 14.2722 3.53683 -1.54355 3.53556 3.30822 1 -7.35369 0.0160754 4
278 1 16.0359 16.0084 3.5642 -1.40484 -0.0202148 0.874329 1 -7.35878 0.00170447 4
279 1 18.688 13.381 2.66682 -1.66986 2.12781 0.358212 1 -7.35621 0.00463354 4
280 1 20.5029 13.3714 0.891429 0 0 0 1 -6.99305 0 4
281 1 17.8286 14.2629 0 0 0 0 1 -3.33587 0 2
282 1 17.7939 16.059 1.77846 6.4824 6.64754 3.22445 1 -7.34624 0.0601316 4
283 1 19.5578 14.2896 1.73306 7.37024 -0.258397 -1.60884 1 -7.2992 0.0354631 4
284 1 19.6114 16.0457 0 0 0 0 1 -3.32251 0 2
285 1 18.72 15.1543 0.891429 0 0 0 1 -6.99962 0 4
286 1 18.701 16.9013 2.66913 3.63685 -6.70176 -6.23045 1 -7.37346 0.0603497 4
287 1 20.5089 15.173 2.63105 3.30513 -8.1116 -3.16191 1 -7.28593 0.0539765 4
288 1 20.5029 16.9371 0.891429 0 0 0 1 -7.04371 0 4
289 1 17.8237 14.2477 3.57079 3.77231 -11.7117 -0.830269 1 -7.34662 0.0946611 4
290 1 19.5818 16.0133 3.51843 -3.71586 3.57165 -0.797691 1 -7.32579 0.0169304 4
293 1 0 17.8286 0 0 0 0 1 -3.33213 0 2
294 1 1.75191 17.8243 1.77787 -1.0328 5.16645 -4.70753 1 -7.36731 0.0310713 4
295 1 1.78286 19.6114 0 0 0 0 1 -3.33755 0 2
296 1 0.891429 18.72 0.891429 0 0 0 1 -7.02905 0 4
297 1 0.868678 20.514 2.69612 -1.81213 2.25266 4.35485 1 -7.31362 0.0170066 4
298 1 2.64637 18.6813 2.63368 -5.23581 1.09036 -5.51707 1 -7.31477 0.0367484 4
299 1 2.67429 20.5029 0.891429 0 0 0 1 -7.04097 0 4
300 1 3.56572 17.8286 0 0 0 0 1 -3.33297 0 2
301 1 3.51312 19.6198 1.76958 0.232294 7.76294 9.44302 1 -7.34734 0.0930451 4
302 1 1.74451 19.598 3.57115 2.52063 -1.71654 -12.4425 1 -7.29166 0.10215 4
303 1 3.56294 17.8388 3.61058 -7.81815 4.75514 -4.20874 1 -7.28041 0.0631441 4
305 1 -0.0230655 19.6251 1.77429 -4.4523 1.14996 1.30319 1 -7.32227 0.0142185 4
304 1 -0.0567292 17.8214 3.53849 -1.1262 -6.75915 0.23834 1 -7.33099 0.029261 4
27 1 5.38171 21.3729 1.76205 -6.61392 -8.43187 2.51927 1 -7.34955 0.07543 4
307 1 5.32341 17.7945 1.82485 -3.81918 1.62468 3.35931 1 -7.30416 0.0177458 4
308 1 5.34857 19.6114 0 0 0 0 1 -3.33968 0 2
309 1 4.45714 18.72 0.891429 0 0 0 1 -6.95112 0 4
310 1 4.43708 20.5125 2.64049 5.20645 -3.73487 -0.883328 1 -7.3207 0.0260402 4
311 1 6.24612 18.7158 2.66475 -0.201018 2.14839 -0.267877 1 -7.32059 0.00294266 4
312 1 6.24 20.5029 0.891429 0 0 0 1 -7.04548 0 4
313 1 7.13143 17.8286 0 0 0 0 1 -3.326 0 2
314 1 7.12319 19.573 1.75709 -1.39001 0.216655 -0.972058 1 -7.36297 0.00181995 4
315 1 8.02286 18.72 0.891429 0 0 0 1 -7.02953 0 4
316 1 8.04509 20.471 2.68985 -1.68891 -8.30898 0.415169 1 -7.29466 0.0448545 4
317 1 5.36129 19.6382 3.57672 -1.14856 3.18056 0.0681897 1 -7.34863 0.00712042 4
318 1 7.09944 17.7726 3.54106 2.37774 -3.35353 -0.0691214 1 -7.31574 0.0105219 4
322 1 8.91303 17.8206 1.78173 -9.21787 -2.19103 -3.9482 1 -7.37819 0.0655776 4
323 1 8.91429 19.6114 0 0 0 0 1 -3.32938 0 2
324 1 9.79795 18.7275 2.64468 1.63193 -7.46899 -6.08166 1 -7.29183 0.0594016 4
325 1 9.80572 20.5029 0.891429 0 0 0 1 -6.98654 0 4
326 1 10.6971 17.8286 0 0 0 0 1 -3.32595 0 2
327 1 10.6672 19.622 1.75762 -1.35799 -0.101198 -3.15566 1 -7.36479 0.00735245 4
328 1 12.496 17.8215 1.77561 -2.54215 4.19784 -6.13694 1 -7.37435 0.0384325 4
329 1 12.48 19.6114 0 0 0 0 1 -3.31999 0 2
330 1 11.5886 18.72 0.891429 0 0 0 1 -6.99768 0 4
331 1 11.5826 20.4709 2.66975 3.33359 -1.10041 -3.90515 1 -7.31772 0.0171627 4
332 1 8.88675 19.5956 3.58822 -1.11189 -0.0104938 3.44445 1 -7.37096 0.00815419 4
333 1 10.7333 17.8608 3.56534 4.57359 0.411759 -0.782159 1 -7.24601 0.0135061 4
334 1 12.5147 19.5482 3.54153 -12.155 -2.48998 3.12482 1 -7.28194 0.101897 4
335 1 16.0508 21.3831 1.76161 0.0290455 0.103287 2.72137 1 -7.31753 0.00461675 4
337 1 13.4012 18.6952 2.667 0.434909 5.66489 -0.936409 1 -7.38356 0.0206378 4
338 1 13.3714 20.5029 0.891429 0 0 0 1 -7.05656 0 4
339 1 14.2629 17.8286 0 0 0 0 1 -3.33593 0 2
340 1 14.2768 19.6286 1.76578 -3.73433 -2.25892 -3.88411 1 -7.35753 0.021246 4
341 1 16.0888 17.8329 1.76297 -4.58991 -1.99561 0.829426 1 -7.30925 0.0160198 4
342 1 16.0457 19.6114 0 0 0 0 1 -3.30777 0 2
343 1 15.1543 18.72 0.891429 0 0 0 1 -7.00541 0 4
344 1 15.1333 20.4914 2.70132 -1.74653 -1.67265 -2.70742 1 -7.33806 0.00820248 4
345 1 16.9525 18.7232 2.67682 -4.62444 0.940883 -3.84066 1 -7.31818 0.0230431 4
346 1 16.9371 20.5029 0.891429 0 0 0 1 -7.03227 0 4
347 1 14.2871 17.8353 3.54101 3.79183 0.301988 1.47072 1 -7.38011 0.0103523 4
348 1 16.0579 19.6085 3.55957 -4.05682 1.54728 -1.15131 1 -7.40351 0.012559 4
350 1 21.3958 21.4147 3.56695 6.59659 -0.840385 2.88275 1 -7.41282 0.032697 4
349 1 17.8069 21.4337 3.57158 2.79883 -4.7061 6.53371 1 -7.3593 0.0452319 4
351 1 17.8286 17.8286 0 0 0 0 1 -3.31449 0 2
352 1 17.8104 19.6134 1.77914 -1.68834 3.98654 -2.87009 1 -7.34347 0.0167933 4
353 1 19.6105 17.7805 1.77954 -1.40185 5.43227 2.60775 1 -7.36632 0.0238234 4
354 1 19.6114 19.6114 0 0 0 0 1 -3.34311 0 2
355 1 18.72 18.72 0.891429 0 0 0 1 -6.98433 0 4
356 1 18.6991 20.557 2.67397 -4.38278 -1.70841 -5.14842 1 -7.31086 0.0302709 4
357 1 20.4395 18.7117 2.67576 0.626729 3.38242 -0.789634 1 -7.3485 0.00775362 4
358 1 20.5029 20.5029 0.891429 0 0 0 1 -7.03716 0 4
359 1 17.8505 17.7578 3.58271 0.010943 -4.93005 1.45976 1 -7.29376 0.0164547 4
360 1 19.597 19.6283 3.53092 2.80688 3.79106 -4.86601 1 -7.32756 0.0285873 4
361 1 0.882986 0.909821 4.41823 -5.06386 -5.54427 -1.83311 1 -7.37065 0.0371849 4
362 1 0.885423 2.63244 6.24347 -5.70632 -2.07665 4.21943 1 -7.3723 0.0340331 4
363 1 2.63213 0.843511 6.22566 -2.98637 -3.57971 -1.0786 1 -7.33965 0.0142512 4
364 1 2.65014 2.6766 4.44758 6.73365 -6.48414 -2.08985 1 -7.28925 0.0571099 4
365 1 3.52974 1.68719 5.34096 2.78168 0.553798 9.02134 1 -7.24346 0.0556629 4
366 1 1.76651 3.54245 5.37654 0.756532 1.33159 5.5758 1 -7.305 0.0208108 4
367 1 1.74035 1.6734 7.10602 -0.985689 -3.01062 3.0782 1 -7.30268 0.012144 4
368 1 0.864451 0.78874 8.06381 -5.72521 0.326505 1.03415 1 -7.31997 0.0211339 4
369 1 2.68601 2.62971 7.96829 3.07279 -1.73858 -8.78745 1 -7.25002 0.0558216 4
370 1 3.5636 3.52196 7.1088 -7.99091 4.45041 -0.748381 1 -7.33285 0.0524212 4
651 1 3.59389 -0.00710972 7.10201 4.51548 4.47307 1.34876 1 -7.3067 0.026277 4
710 1 -0.022111 -0.0596112 7.09369 6.00005 1.6997 6.44205 1 -7.32127 0.0500366 4
372 1 4.42771 0.836775 4.4493 8.01341 -3.53164 1.91486 1 -7.39096 0.0500144 4
373 1 4.45017 2.65118 6.23525 0.342166 0.169133 -3.47185 1 -7.24379 0.00759323 4
374 1 6.21943 0.900712 6.25366 -7.34099 1.51377 -2.18784 1 -7.37089 0.0379483 4
375 1 6.21344 2.68004 4.4071 12.1658 -10.4096 -9.99082 1 -7.33269 0.221697 4
376 1 7.09952 1.79457 5.34351 -6.57986 -1.18375 -1.12332 1 -7.27066 0.0286052 4
377 1 8.10743 0.911974 4.4514 -1.37301 -1.63227 -7.53608 1 -7.2745 0.0381808 4
378 1 8.00148 2.70279 6.22301 0.386037 -2.36853 -0.389272 1 -7.35101 0.00367885 4
379 1 5.37157 3.61355 5.33784 -3.29373 1.16324 -11.1719 1 -7.27917 0.085281 4
380 1 5.30918 1.75133 7.14652 1.1332 1.18534 -5.44006 1 -7.34487 0.0200941 4
381 1 4.45407 0.886267 7.97491 -3.27832 4.46171 -4.36015 1 -7.32984 0.0309129 4
382 1 6.21752 2.63321 8.01245 -1.72007 -7.07616 0.471694 1 -7.35982 0.0331462 4
383 1 8.03121 0.912629 8.03245 -1.24516 2.83237 -0.154249 1 -7.31845 0.00597313 4
384 1 7.08858 3.544 7.09618 6.19016 -1.97419 0.0991237 1 -7.31008 0.0262821 4
385 1 5.30372 -0.00339443 5.36318 -0.675831 -0.648863 -2.17438 1 -7.26512 0.00348915 4
386 1 9.82293 0.935058 6.22917 -2.55794 0.77768 -9.06957 1 -7.3108 0.055648 4
387 1 9.83271 2.70751 4.46412 -1.88991 -1.01078 -11.4551 1 -7.38996 0.0845336 4
388 1 10.7036 1.80022 5.32809 -3.49437 3.92916 1.8364 1 -7.39368 0.0193085 4
389 1 11.5979 0.896925 4.478 -1.89772 0.377694 -3.37445 1 -7.38715 0.00941786 4
390 1 11.5604 2.67316 6.25906 -1.31757 5.28012 -0.928618 1 -7.33571 0.0189703 4
391 1 8.9099 3.57864 5.30713 3.64432 -3.11696 -2.42777 1 -7.3726 0.0179823 4
392 1 12.465 3.56942 5.39893 5.72009 3.06623 -1.48071 1 -7.34055 0.027582 4
393 1 8.90067 1.81823 7.09338 -5.22074 -0.43018 -10.0619 1 -7.36073 0.080096 4
394 1 9.79592 2.68053 7.99845 -0.936837 -0.881312 -2.42796 1 -7.32992 0.00469893 4
395 1 12.4878 1.82251 7.17372 -1.35652 11.839 0.322002 1 -7.31956 0.088451 4
396 1 11.6187 0.90049 8.02075 -3.93812 -2.6757 -0.147702 1 -7.3275 0.0141228 4
397 1 10.6722 3.57993 7.09614 -0.755269 -2.63103 4.24486 1 -7.28643 0.0158791 4
398 1 13.3595 0.887403 6.21808 1.37848 2.16843 4.86089 1 -7.29767 0.0188163 4
399 1 13.3288 2.70932 4.47892 3.5126 5.41721 -4.22589 1 -7.21331 0.0370609 4
400 1 14.2585 1.76047 5.38192 -7.02965 -2.98335 -4.19329 1 -7.28242 0.0472421 4
401 1 15.134 0.87629 4.49668 11.4503 1.29953 -1.72344 1 -7.32528 0.084506 4
402 1 15.1274 2.67375 6.26373 -5.45063 5.76142 -3.60441 1 -7.36329 0.0472391 4
403 1 16.9344 0.843051 6.24194 -1.68712 1.32144 1.38133 1 -7.41292 0.00404617 4
404 1 16.9114 2.69955 4.44834 0.726911 -5.09772 -2.19119 1 -7.34079 0.0194922 4
405 1 16.0427 3.56084 5.33894 1.30551 4.35483 -8.64497 1 -7.35356 0.0593822 4
406 1 13.3612 2.67222 8.05936 -3.82416 3.73166 -1.28629 1 -7.38287 0.0187998 4
407 1 16.0312 1.74127 7.13604 -6.47101 -0.353265 -1.83126 1 -7.29303 0.0282285 4
408 1 15.1058 0.868522 8.01877 2.98484 0.931575 0.209737 1 -7.34448 0.00611291 4
409 1 16.8973 2.64952 8.03568 -3.95963 7.91306 -0.719975 1 -7.37309 0.0490556 4
410 1 14.2908 3.53647 7.1497 7.37326 -2.83793 0.50455 1 -7.37327 0.0390096 4
695 1 14.252 -0.0149426 7.07097 -0.309715 -1.40434 -0.598764 1 -7.30883 0.00151039 4
411 1 21.3863 1.81341 5.28958 -2.99739 -3.72305 1.73155 1 -7.28459 0.0160858 4
371 1 21.3881 3.54027 7.12882 7.06291 6.62478 -3.0973 1 -7.37755 0.0643375 4
412 1 17.8225 1.7705 5.34714 5.33508 6.79897 -1.85875 1 -7.33644 0.0486389 4
413 1 18.6917 0.933725 4.42776 0.271566 -0.799857 -0.305948 1 -7.33118 0.000502374 4
414 1 18.6741 2.71471 6.24273 -0.622537 1.96917 0.736629 1 -7.29369 0.0029925 4
415 1 20.4715 0.856733 6.18805 -0.68329 7.96515 6.3808 1 -7.30845 0.0651215 4
416 1 20.4841 2.67639 4.46534 7.21292 3.39075 -4.50526 1 -7.40465 0.0521722 4
417 1 19.6229 3.56564 5.32404 -4.87464 -0.56163 -3.5168 1 -7.37309 0.0226846 4
418 1 19.6116 1.76545 7.10102 7.93498 0.355636 -5.28893 1 -7.31604 0.0566801 4
419 1 18.781 0.894442 8.05281 2.25739 -4.89669 0.0375581 1 -7.26779 0.0180969 4
420 1 20.4587 2.66013 8.02734 4.30226 7.18606 0.481296 1 -7.25322 0.0438067 4
421 1 17.7967 3.54231 7.13552 -1.4906 -1.48964 0.175353 1 -7.38357 0.00278328 4
423 1 0.83924 4.48412 4.44769 -5.32456 -5.06713 0.811913 1 -7.2525 0.0340379 4
424 1 0.848196 6.21155 6.23804 -2.64305 -4.76661 -10.1951 1 -7.35765 0.0831856 4
425 1 2.6558 4.46337 6.23985 0.946887 0.627166 -3.60846 1 -7.28609 0.00890747 4
426 1 2.64956 6.21664 4.42588 -1.27546 -2.68734 3.01548 1 -7.26825 0.0111674 4
427 1 3.58464 5.3539 5.36738 8.77847 7.72556 6.50549 1 -7.36271 0.111456 4
428 1 1.71402 7.10956 5.29992 -5.92044 2.90022 3.97837 1 -7.2073 0.0369038 4
429 1 0.873937 7.98011 4.39221 -5.0265 0.537599 -2.15494 1 -7.2952 0.0187963 4
430 1 2.66487 8.02868 6.27754 -2.24174 -7.90371 4.19681 1 -7.22263 0.0529729 4
431 1 1.75962 5.3761 7.14486 1.83883 8.41585 -0.810213 1 -7.36096 0.0465974 4
432 1 0.865951 4.43411 8.00138 -5.31242 2.8414 -3.89292 1 -7.37906 0.032024 4
433 1 2.69901 6.17849 8.05316 -15.6285 -0.41981 -2.45334 1 -7.33452 0.155883 4