ITEM: TIMESTEP
49124925
ITEM: NUMBER OF ATOMS
3060
ITEM: BOX BOUNDS pp pp mm
0.0000000000000000e+00 2.1394294200000001e+01
0.0000000000000000e+00 2.1394294200000001e+01
-5.3491084073550004e-03 5.3485735499999997e+01
ITEM: ATOMS id type x y z vx vy vz c_clusts c_atom_pe c_atom_ke c_atom_coord
1 1 0 0 0 0 0 0 1 -3.32741 0 2
2 1 1.78286 1.78286 0 0 0 0 1 -3.3269 0 2
3 1 0.891429 0.891429 0.891429 0 0 0 1 -7.01352 0 4
4 1 0.888399 2.65803 2.70228 0.463406 -3.48584 -1.81158 1 -7.33589 0.0097395 4
5 1 2.64734 0.857922 2.69751 2.56583 2.11736 9.68686 1 -7.33211 0.0652937 4
6 1 2.67429 2.67429 0.891429 0 0 0 1 -7.01258 0 4
7 1 3.56572 0 0 0 0 0 1 -3.33511 0 2
8 1 3.53708 1.75482 1.76269 9.04436 7.28741 -4.26519 1 -7.3445 0.0952925 4
9 1 0 3.56572 0 0 0 0 1 -3.35118 0 2
10 1 1.77326 3.54631 1.81483 -0.873547 6.94314 -5.53202 1 -7.36429 0.0495287 4
11 1 3.56572 3.56572 0 0 0 0 1 -3.3474 0 2
12 1 1.7934 1.75754 3.64054 -3.16077 -2.63582 6.42473 1 -7.33307 0.0362347 4
13 1 3.535 3.61867 3.57521 -6.55514 -1.6377 0.117374 1 -7.29669 0.0284235 4
292 1 1.79587 0.00968006 1.77892 5.33631 -0.933388 -3.27153 1 -7.33936 0.0249284 4
56 1 0.0447532 3.56296 3.59695 10.7276 -1.23508 1.9948 1 -7.29256 0.0750562 4
14 1 5.34857 1.78286 0 0 0 0 1 -3.3234 0 2
15 1 4.45714 0.891429 0.891429 0 0 0 1 -7.04191 0 4
16 1 4.41657 2.64324 2.6791 6.42004 5.18045 -5.18468 1 -7.29815 0.05909 4
17 1 6.19728 0.896121 2.70679 -2.48787 2.32912 -0.438796 1 -7.33714 0.00734887 4
18 1 6.24 2.67429 0.891429 0 0 0 1 -6.98157 0 4
19 1 7.13143 0 0 0 0 0 1 -3.32374 0 2
20 1 7.15501 1.7666 1.74996 -4.38882 -1.50078 2.95033 1 -7.25047 0.0188088 4
21 1 8.02286 0.891429 0.891429 0 0 0 1 -7.04679 0 4
22 1 8.03052 2.70642 2.69177 4.99847 3.48308 -4.81608 1 -7.25736 0.0375392 4
23 1 5.32746 3.54271 1.80216 3.53538 3.297 -1.8801 1 -7.32817 0.0167457 4
24 1 7.13143 3.56572 0 0 0 0 1 -3.34696 0 2
25 1 5.357 1.82365 3.5211 5.56737 6.48043 -6.27865 1 -7.31873 0.0699687 4
26 1 7.19526 3.61021 3.60897 0.730587 -4.49446 2.96123 1 -7.28116 0.0183634 4
306 1 7.09807 0.0108489 3.5532 5.91909 -8.54693 -1.94198 1 -7.37583 0.0696227 4
27 1 5.34375 0.0504009 1.76267 -3.62718 -5.37097 -1.98641 1 -7.32476 0.0286002 4
28 1 8.91429 1.78286 0 0 0 0 1 -3.35159 0 2
29 1 9.83869 0.920883 2.65865 5.48498 -1.15823 -8.57638 1 -7.3327 0.0653428 4
30 1 9.80572 2.67429 0.891429 0 0 0 1 -7.02927 0 4
31 1 10.6971 0 0 0 0 0 1 -3.35166 0 2
32 1 10.7102 1.79559 1.79774 -4.13237 3.83975 -1.69248 1 -7.36485 0.0215886 4
33 1 12.48 1.78286 0 0 0 0 1 -3.31107 0 2
34 1 11.5886 0.891429 0.891429 0 0 0 1 -7.00529 0 4
35 1 11.6238 2.68756 2.6727 7.75821 -0.617633 4.85901 1 -7.40782 0.0523967 4
36 1 8.95709 3.57473 1.78604 1.65922 -1.0297 -0.667964 1 -7.3126 0.0026512 4
37 1 10.6971 3.56572 0 0 0 0 1 -3.31659 0 2
38 1 12.4895 3.56039 1.77609 -1.39587 -4.64007 -8.11635 1 -7.40575 0.0556162 4
39 1 8.93992 1.82912 3.5735 -0.640733 -1.87159 0.101483 1 -7.22509 0.0024422 4
40 1 12.4861 1.80239 3.58747 5.8202 -8.89326 2.21317 1 -7.31438 0.073361 4
41 1 10.7229 3.55241 3.57633 5.03305 0.983499 -2.23137 1 -7.32425 0.0194682 4
321 1 12.4955 0.0394229 1.7854 8.3517 -1.69529 -4.26237 1 -7.27571 0.0565118 4
320 1 8.89971 0.0342446 1.81191 4.78778 6.17849 -6.21209 1 -7.34265 0.0620476 4
42 1 13.4251 0.858197 2.69664 0.61536 6.82528 4.22427 1 -7.31782 0.0403379 4
43 1 13.3714 2.67429 0.891429 0 0 0 1 -7.03037 0 4
44 1 14.2629 0 0 0 0 0 1 -3.30174 0 2
45 1 14.2502 1.73825 1.78056 1.42679 0.462529 -0.630571 1 -7.30923 0.00164774 4
46 1 16.0457 1.78286 0 0 0 0 1 -3.34304 0 2
47 1 15.1543 0.891429 0.891429 0 0 0 1 -7.02486 0 4
48 1 15.1905 2.62652 2.71894 -2.32096 3.49966 -0.536334 1 -7.29751 0.0111552 4
49 1 16.9641 0.847091 2.70418 8.30002 -2.12715 -1.31184 1 -7.31532 0.0467666 4
50 1 16.9371 2.67429 0.891429 0 0 0 1 -7.01929 0 4
51 1 14.2629 3.56572 0 0 0 0 1 -3.33703 0 2
52 1 16.0342 3.56459 1.76982 -6.86268 5.46776 -1.92617 1 -7.34241 0.0502317 4
53 1 16.0442 1.7526 3.59562 8.66952 3.72876 -4.47164 1 -7.37553 0.0678817 4
54 1 14.329 3.57312 3.58917 -1.25779 0.337986 0.751236 1 -7.31671 0.00140707 4
55 1 21.3819 1.75714 1.82187 -1.0695 0.214712 -1.42747 1 -7.34188 0.00200893 4
57 1 17.8286 0 0 0 0 0 1 -3.34746 0 2
58 1 17.8547 1.78565 1.78822 -0.639493 -0.0744289 -2.4162 1 -7.32101 0.00389174 4
59 1 19.6114 1.78286 0 0 0 0 1 -3.33323 0 2
60 1 18.72 0.891429 0.891429 0 0 0 1 -7.02975 0 4
61 1 18.7805 2.67558 2.70659 1.14089 -2.32963 -5.92756 1 -7.33402 0.0260577 4
62 1 20.5085 0.895466 2.71352 5.90836 0.832164 2.5997 1 -7.34984 0.0263658 4
63 1 20.5029 2.67429 0.891429 0 0 0 1 -6.99782 0 4
64 1 17.8286 3.56572 0 0 0 0 1 -3.33097 0 2
65 1 19.664 3.55335 1.80662 -5.92605 1.0801 0.512782 1 -7.35456 0.0227482 4
66 1 19.6072 1.75944 3.63086 -1.38956 -1.92768 -3.60875 1 -7.3602 0.0116206 4
67 1 17.8832 3.5597 3.60999 -8.84317 1.3753 -2.59463 1 -7.26306 0.0540423 4
68 1 19.6238 0.0193087 1.76133 -2.20862 2.27498 -2.1201 1 -7.31515 0.00905528 4
349 1 17.8467 -0.000772208 3.59347 -0.650165 -10.7838 1.29457 1 -7.38322 0.0736885 4
69 1 1.78286 5.34857 0 0 0 0 1 -3.35659 0 2
70 1 0.891429 4.45714 0.891429 0 0 0 1 -6.96114 0 4
71 1 0.88715 6.26369 2.71116 2.66545 8.29484 11.742 1 -7.29585 0.133065 4
72 1 2.68469 4.46848 2.6905 4.15975 8.83682 0.533823 1 -7.37136 0.0595524 4
73 1 2.67429 6.24 0.891429 0 0 0 1 -7.02162 0 4
74 1 3.56585 5.36542 1.78408 11.9302 7.1057 -3.16495 1 -7.38802 0.126251 4
75 1 0 7.13143 0 0 0 0 1 -3.35804 0 2
76 1 1.80694 7.17478 1.78076 -2.92549 -3.28392 -2.42736 1 -7.30807 0.0157068 4
77 1 0.891429 8.02286 0.891429 0 0 0 1 -7.02903 0 4
78 1 2.71171 8.06449 2.66952 1.12754 4.0023 -2.3047 1 -7.33219 0.0140677 4
79 1 3.56572 7.13143 0 0 0 0 1 -3.31429 0 2
80 1 1.838 5.37606 3.62338 -0.792285 4.7797 -0.59984 1 -7.29754 0.0148343 4
81 1 3.60449 7.14307 3.59574 -4.74777 0.595255 8.45332 1 -7.29761 0.0587286 4
128 1 0.00691938 5.36968 1.83239 0.495107 7.82388 2.92423 1 -7.34049 0.0435756 4
83 1 5.34857 5.34857 0 0 0 0 1 -3.34529 0 2
84 1 4.45714 4.45714 0.891429 0 0 0 1 -6.98213 0 4
85 1 4.47631 6.23457 2.64472 1.57182 -5.37535 1.5863 1 -7.35286 0.0210886 4
86 1 6.24244 4.46029 2.65035 -6.86338 -5.01146 0.316977 1 -7.26267 0.0450146 4
87 1 6.24 6.24 0.891429 0 0 0 1 -7.02876 0 4
88 1 7.1435 5.34586 1.79097 -3.49041 -1.22977 -4.38568 1 -7.3476 0.0204962 4
89 1 8.02286 4.45714 0.891429 0 0 0 1 -7.00524 0 4
90 1 8.01578 6.18632 2.75472 -3.24902 -6.77371 10.7026 1 -7.33546 0.106426 4
91 1 5.36468 7.13545 1.77641 -4.99328 -2.2943 -0.750284 1 -7.38622 0.0191456 4
92 1 4.45714 8.02286 0.891429 0 0 0 1 -7.01672 0 4
93 1 6.19676 7.98835 2.67508 -2.88877 7.24495 -4.50022 1 -7.33739 0.0504703 4
94 1 7.13143 7.13143 0 0 0 0 1 -3.31922 0 2
95 1 8.02286 8.02286 0.891429 0 0 0 1 -6.99636 0 4
96 1 5.32032 5.35508 3.53627 -4.12845 0.557936 -3.43651 1 -7.318 0.018153 4
97 1 7.13487 7.12476 3.55424 6.78281 -5.94984 -3.34627 1 -7.32956 0.0576396 4
98 1 8.91429 5.34857 0 0 0 0 1 -3.32183 0 2
99 1 9.80781 4.43983 2.68417 -11.0984 4.0443 -2.71006 1 -7.36542 0.0914191 4
100 1 9.80572 6.24 0.891429 0 0 0 1 -7.02098 0 4
101 1 10.6819 5.32185 1.78409 -7.0335 -0.154512 -4.89938 1 -7.35175 0.0457471 4
102 1 12.48 5.34857 0 0 0 0 1 -3.34668 0 2
103 1 11.5886 4.45714 0.891429 0 0 0 1 -7.03145 0 4
104 1 11.5833 6.23028 2.65991 4.3671 1.28854 -6.80804 1 -7.36841 0.0417532 4
105 1 8.94568 7.0986 1.81172 -9.16704 -2.36556 -0.638888 1 -7.25485 0.0560424 4
106 1 9.81139 8.01565 2.70456 2.45961 -4.78453 -0.756857 1 -7.36302 0.0183704 4
107 1 10.6971 7.13143 0 0 0 0 1 -3.34524 0 2
108 1 12.4926 7.10228 1.81114 -1.23321 -7.40263 -4.23164 1 -7.30853 0.0462005 4
109 1 11.5886 8.02286 0.891429 0 0 0 1 -6.95316 0 4
110 1 8.90862 5.33992 3.5988 2.70332 2.16885 0.745732 1 -7.34232 0.00782262 4
111 1 12.4662 5.34502 3.57645 -3.34189 6.15191 -0.304473 1 -7.32098 0.0305655 4
112 1 10.7009 7.1394 3.5574 0.504341 -3.23838 0.749619 1 -7.39109 0.00703553 4
113 1 13.3988 4.41259 2.6647 5.52607 -8.90372 3.2006 1 -7.3096 0.0747269 4
114 1 13.3714 6.24 0.891429 0 0 0 1 -7.02693 0 4
115 1 14.2427 5.37048 1.79153 -4.26305 3.23542 -7.28687 1 -7.29646 0.0508771 4
116 1 16.0457 5.34857 0 0 0 0 1 -3.3336 0 2
117 1 15.1543 4.45714 0.891429 0 0 0 1 -6.99679 0 4
118 1 15.1676 6.2814 2.64122 9.20568 -5.73285 2.26192 1 -7.26181 0.0763881 4
119 1 16.9234 4.45975 2.66822 -0.708233 3.15899 -1.02432 1 -7.29409 0.00717659 4
120 1 16.9371 6.24 0.891429 0 0 0 1 -7.01233 0 4
121 1 13.3931 8.05023 2.72482 -2.3313 1.2735 -9.32693 1 -7.26607 0.0585382 4
122 1 14.2629 7.13143 0 0 0 0 1 -3.35829 0 2
123 1 16.0771 7.14851 1.75193 2.7212 -4.50528 -4.58589 1 -7.36064 0.0303326 4
124 1 15.1543 8.02286 0.891429 0 0 0 1 -7.00265 0 4
125 1 16.9587 8.05369 2.6717 -7.39231 -1.87745 -5.69434 1 -7.3321 0.0563897 4
126 1 16.0368 5.31185 3.59976 -8.20276 -3.50528 7.34102 1 -7.29311 0.0830708 4
127 1 14.2627 7.16462 3.57368 5.88102 -7.64647 3.53814 1 -7.32371 0.0657116 4
82 1 21.3807 7.17219 3.55409 -4.24672 -1.77353 6.36882 1 -7.28899 0.0384297 4
129 1 17.8227 5.31923 1.79644 -0.795156 -0.406212 1.09469 1 -7.36591 0.00124213 4
130 1 19.6114 5.34857 0 0 0 0 1 -3.33108 0 2
131 1 18.72 4.45714 0.891429 0 0 0 1 -6.98914 0 4
132 1 18.7108 6.22168 2.6674 2.78335 2.67074 -0.443927 1 -7.40313 0.00938429 4
133 1 20.5226 4.44355 2.6886 -6.58865 1.61494 -2.38132 1 -7.34677 0.0321726 4
134 1 20.5029 6.24 0.891429 0 0 0 1 -6.97677 0 4
135 1 17.8286 7.13143 0 0 0 0 1 -3.31466 0 2
136 1 19.5607 7.11711 1.7808 -1.79438 -4.98645 5.44984 1 -7.35861 0.0359671 4
137 1 18.72 8.02286 0.891429 0 0 0 1 -7.03532 0 4
138 1 20.4693 8.03017 2.62686 0.539909 -1.26356 2.1132 1 -7.32318 0.00395472 4
139 1 19.6012 5.33165 3.57002 -0.313017 1.83413 11.9937 1 -7.34367 0.0916908 4
140 1 17.8367 7.10174 3.56543 1.16844 2.20435 5.30204 1 -7.34163 0.0213716 4
141 1 1.78286 8.91429 0 0 0 0 1 -3.31891 0 2
142 1 0.914899 9.79618 2.67077 3.54586 -5.97452 0.720287 1 -7.322 0.0303662 4
143 1 2.67429 9.80572 0.891429 0 0 0 1 -7.0012 0 4
144 1 3.54667 8.92217 1.76241 3.34891 -4.36435 3.02049 1 -7.34736 0.024515 4
145 1 0 10.6971 0 0 0 0 1 -3.33768 0 2
146 1 1.74546 10.6906 1.83232 3.30475 -0.0843524 2.72879 1 -7.3446 0.0114369 4
147 1 1.78286 12.48 0 0 0 0 1 -3.33722 0 2
148 1 0.891429 11.5886 0.891429 0 0 0 1 -7.01153 0 4
149 1 2.5833 11.5848 2.69121 0.7019 -0.842471 -0.432182 1 -7.24213 0.000864676 4
150 1 3.56572 10.6971 0 0 0 0 1 -3.35998 0 2
151 1 3.58024 12.4834 1.80303 -1.39644 2.01608 -0.975841 1 -7.32822 0.00433638 4
152 1 1.83049 8.93793 3.59028 11.0627 0.17406 4.2585 1 -7.3051 0.0874805 4
153 1 1.73793 12.4807 3.64798 1.39914 -0.49976 -5.15671 1 -7.34451 0.0179252 4
154 1 3.53821 10.6978 3.56525 3.08063 -3.30942 -2.96848 1 -7.28137 0.0182087 4
205 1 0.021523 8.88733 1.77539 7.79864 -5.71945 -1.6322 1 -7.37365 0.0598743 4
204 1 0.0274687 12.5029 1.75508 12.8013 -1.76385 -1.01066 1 -7.319 0.104571 4
155 1 5.34857 8.91429 0 0 0 0 1 -3.32286 0 2
156 1 4.46717 9.81335 2.66698 -0.686467 -3.376 6.193 1 -7.33919 0.0312594 4
157 1 6.24 9.80572 0.891429 0 0 0 1 -7.00739 0 4
158 1 7.11569 8.90107 1.75284 3.70543 3.00496 -3.90445 1 -7.30758 0.0236551 4
159 1 7.98125 9.78605 2.71093 2.87601 2.41895 4.36141 1 -7.30362 0.0206301 4
160 1 5.34291 10.7143 1.81853 2.64453 -7.80295 2.37727 1 -7.33331 0.0457676 4
161 1 5.34857 12.48 0 0 0 0 1 -3.339 0 2
162 1 4.45714 11.5886 0.891429 0 0 0 1 -7.02508 0 4
163 1 6.21041 11.5959 2.75634 3.39943 0.572828 -6.00432 1 -7.35217 0.0298367 4
164 1 7.13143 10.6971 0 0 0 0 1 -3.33009 0 2
165 1 7.08168 12.4691 1.80093 5.2974 -0.248394 -0.244224 1 -7.26429 0.0175424 4
166 1 8.02286 11.5886 0.891429 0 0 0 1 -7.03135 0 4
167 1 5.34285 8.91993 3.56388 4.63883 -13.653 -0.313749 1 -7.32825 0.129478 4
168 1 5.33926 12.5178 3.61472 -8.31784 -0.528051 1.89836 1 -7.35942 0.0454801 4
169 1 7.17447 10.7055 3.56788 1.98017 2.86992 3.98377 1 -7.31352 0.0174453 4
170 1 8.91429 8.91429 0 0 0 0 1 -3.33397 0 2
171 1 9.80572 9.80572 0.891429 0 0 0 1 -6.99378 0 4
172 1 10.6806 8.94262 1.7773 -5.91379 -0.749229 -2.74751 1 -7.33803 0.0268161 4
173 1 12.48 8.91429 0 0 0 0 1 -3.33929 0 2
174 1 11.6021 9.79086 2.69402 -4.29458 3.09245 3.77437 1 -7.31263 0.0262991 4
175 1 8.86916 10.7388 1.78173 -4.07851 -1.94089 0.444696 1 -7.27171 0.0128214 4
176 1 8.91429 12.48 0 0 0 0 1 -3.33007 0 2
177 1 9.81884 11.5799 2.64548 2.20148 2.63243 8.2352 1 -7.39215 0.0495419 4
178 1 10.6971 10.6971 0 0 0 0 1 -3.32479 0 2
179 1 10.7075 12.4486 1.81988 -0.0655556 4.12921 0.236599 1 -7.32539 0.0106501 4
180 1 12.4794 10.6644 1.78376 -1.92961 -2.10107 -2.65697 1 -7.31683 0.00945926 4
181 1 12.48 12.48 0 0 0 0 1 -3.3382 0 2
182 1 11.5886 11.5886 0.891429 0 0 0 1 -6.99808 0 4
183 1 8.91563 8.87568 3.58862 6.8247 -1.00925 7.39993 1 -7.3341 0.0637078 4
184 1 12.4986 8.88763 3.62633 1.29628 6.35959 -1.511 1 -7.32682 0.0276406 4
185 1 8.94803 12.4855 3.5692 -4.62616 4.91145 -1.74401 1 -7.24522 0.0302283 4
186 1 10.6852 10.6879 3.55895 2.41849 -9.8864 1.16771 1 -7.32326 0.0653259 4
187 1 12.4285 12.4831 3.54358 -1.53905 2.3086 -0.654623 1 -7.421 0.00505836 4
188 1 13.3714 9.80572 0.891429 0 0 0 1 -7.05621 0 4
189 1 14.2865 8.96072 1.76075 1.12507 7.03101 -3.52456 1 -7.33156 0.0392896 4
190 1 16.0457 8.91429 0 0 0 0 1 -3.31264 0 2
191 1 15.1709 9.80205 2.65281 -3.81814 6.12373 -1.43014 1 -7.30297 0.0336879 4
192 1 16.9371 9.80572 0.891429 0 0 0 1 -6.9931 0 4
193 1 13.3361 11.5942 2.66964 -0.609059 -6.06733 1.30779 1 -7.34248 0.0242085 4
194 1 14.2629 10.6971 0 0 0 0 1 -3.33347 0 2
195 1 14.2486 12.4533 1.76124 -4.51976 -2.82028 -9.83583 1 -7.38524 0.0778816 4
196 1 16.0869 10.7554 1.77152 -5.5796 0.720846 -2.89725 1 -7.32978 0.0249254 4
197 1 16.0457 12.48 0 0 0 0 1 -3.31658 0 2
198 1 15.1543 11.5886 0.891429 0 0 0 1 -7.0262 0 4
199 1 16.9674 11.6273 2.62967 -2.48213 -0.169352 0.232525 1 -7.35881 0.00388625 4
200 1 16.0611 8.90673 3.51209 1.22084 -1.0553 1.68755 1 -7.36405 0.00339343 4
201 1 14.2327 10.6767 3.53375 8.1289 -7.39523 -0.305075 1 -7.30689 0.0752274 4
202 1 16.0748 12.4518 3.57098 0.0238321 -3.50787 -3.96519 1 -7.37025 0.0174456 4
203 1 21.3673 10.6885 3.58777 0.492557 -0.170471 -4.73839 1 -7.2839 0.014144 4
206 1 17.8279 8.9054 1.76555 5.73839 2.97518 -9.95878 1 -7.37074 0.0877361 4
207 1 19.6114 8.91429 0 0 0 0 1 -3.34098 0 2
208 1 18.6793 9.78497 2.67001 -7.07404 -0.689883 0.944379 1 -7.33266 0.0319988 4
209 1 20.5029 9.80572 0.891429 0 0 0 1 -7.00179 0 4
210 1 17.8286 10.6971 0 0 0 0 1 -3.31196 0 2
211 1 17.8409 12.5046 1.77095 7.27077 7.96518 -6.68979 1 -7.39442 0.100249 4
212 1 19.6185 10.6843 1.76762 0.239002 -0.418656 -12.5778 1 -7.33017 0.0986125 4
213 1 19.6114 12.48 0 0 0 0 1 -3.33375 0 2
214 1 18.72 11.5886 0.891429 0 0 0 1 -6.99981 0 4
215 1 20.4957 11.5949 2.68326 -3.57867 -1.89151 -8.46223 1 -7.29891 0.0547698 4
216 1 19.5604 8.87927 3.55663 7.72434 2.55899 -6.53117 1 -7.31172 0.0677636 4
217 1 17.8718 10.7044 3.54673 -8.16723 5.46717 -3.54608 1 -7.3316 0.0679492 4
218 1 19.5834 12.4996 3.56509 4.28182 -0.572377 1.2935 1 -7.34607 0.0126569 4
219 1 0.891405 13.3895 2.66554 -3.72987 0.319403 -4.01065 1 -7.32724 0.0187346 4
220 1 2.67429 13.3714 0.891429 0 0 0 1 -6.99397 0 4
221 1 0 14.2629 0 0 0 0 1 -3.30699 0 2
222 1 1.78312 14.256 1.76239 4.47322 -4.05146 -1.2974 1 -7.36385 0.0237189 4
223 1 1.78286 16.0457 0 0 0 0 1 -3.31092 0 2
224 1 0.891429 15.1543 0.891429 0 0 0 1 -7.05193 0 4
225 1 0.875341 16.9038 2.65443 -3.37139 -1.52731 4.84677 1 -7.31088 0.0231481 4
226 1 2.67742 15.1391 2.68127 -1.95776 0.75198 4.27408 1 -7.32088 0.0141079 4
227 1 2.67429 16.9371 0.891429 0 0 0 1 -6.99973 0 4
228 1 3.56572 14.2629 0 0 0 0 1 -3.33161 0 2
229 1 3.53995 16.0194 1.75725 -0.22599 -1.28748 -6.61169 1 -7.34919 0.0282725 4
230 1 1.78411 15.9984 3.56144 3.74357 1.99495 -3.84522 1 -7.33416 0.020403 4
231 1 3.58268 14.2422 3.61884 -4.79257 3.70549 -1.33285 1 -7.3357 0.0239484 4
233 1 0.00165081 16.0259 1.74474 5.61077 3.34795 0.886365 1 -7.35142 0.0270601 4
232 1 0.00444148 14.271 3.55293 3.13879 4.93723 -2.8034 1 -7.35848 0.0261962 4
234 1 4.43394 13.3776 2.69972 1.15418 11.1183 2.7134 1 -7.33583 0.0823539 4
235 1 6.24 13.3714 0.891429 0 0 0 1 -6.98471 0 4
236 1 7.96249 13.377 2.70575 1.26729 6.3633 3.40239 1 -7.28465 0.033408 4
237 1 5.3524 14.3087 1.80079 10.4232 -1.78733 -7.59559 1 -7.27768 0.105521 4
238 1 5.34857 16.0457 0 0 0 0 1 -3.35126 0 2
239 1 4.45714 15.1543 0.891429 0 0 0 1 -7.02783 0 4
240 1 4.46271 16.9564 2.64075 1.01122 0.427284 -3.17572 1 -7.3398 0.00702742 4
241 1 6.28976 15.1648 2.73054 -1.69469 -0.442394 5.42654 1 -7.30661 0.0202382 4
242 1 6.24 16.9371 0.891429 0 0 0 1 -7.04303 0 4
243 1 7.13143 14.2629 0 0 0 0 1 -3.32968 0 2
244 1 7.16505 16.0617 1.78069 -3.33229 1.47376 -4.0419 1 -7.33287 0.018432 4
245 1 8.02286 15.1543 0.891429 0 0 0 1 -7.01324 0 4
246 1 8.00875 16.9406 2.68775 7.9577 0.143732 -1.82253 1 -7.37497 0.0414954 4
247 1 5.37411 16.0649 3.55452 7.33733 8.19161 -2.22707 1 -7.31465 0.0783627 4
248 1 7.08149 14.2622 3.60525 4.87696 0.683916 4.40555 1 -7.38246 0.027176 4
249 1 9.80572 13.3714 0.891429 0 0 0 1 -6.99364 0 4
250 1 11.5626 13.3616 2.70235 4.06517 -4.86157 4.66387 1 -7.31623 0.0385357 4
251 1 8.86991 14.2157 1.77692 -0.0378424 5.93878 -2.40073 1 -7.32372 0.0255407 4
252 1 8.91429 16.0457 0 0 0 0 1 -3.3414 0 2
253 1 9.7269 15.1221 2.68666 -0.0792352 1.2509 9.47664 1 -7.2913 0.0568759 4
254 1 9.80572 16.9371 0.891429 0 0 0 1 -7.02945 0 4
255 1 10.6971 14.2629 0 0 0 0 1 -3.36138 0 2
256 1 10.6919 16.06 1.78142 -9.40072 -0.691429 -2.14305 1 -7.24765 0.0581622 4
257 1 12.4695 14.3012 1.77241 -0.125521 1.38086 5.47583 1 -7.28059 0.0198599 4
258 1 12.48 16.0457 0 0 0 0 1 -3.32208 0 2
259 1 11.5886 15.1543 0.891429 0 0 0 1 -7.02701 0 4
260 1 11.6072 16.953 2.68468 -8.10109 -5.37033 -0.229212 1 -7.33881 0.0588322 4
261 1 8.86263 16.0429 3.55412 -8.80875 -1.49659 -9.13089 1 -7.36166 0.101584 4
262 1 10.6271 14.2659 3.57229 -4.27231 -5.82676 3.28772 1 -7.30154 0.0392209 4
263 1 12.4521 16.0449 3.53734 4.75338 2.80732 -5.8234 1 -7.32791 0.0400766 4
264 1 13.3714 13.3714 0.891429 0 0 0 1 -6.98131 0 4
265 1 15.1306 13.3361 2.6605 -2.13496 8.71578 3.04292 1 -7.31048 0.0558828 4
266 1 16.9371 13.3714 0.891429 0 0 0 1 -6.99643 0 4
267 1 13.4205 15.1761 2.64533 4.37624 -10.1763 -4.2302 1 -7.29949 0.0875153 4
268 1 13.3714 16.9371 0.891429 0 0 0 1 -7.03679 0 4
269 1 14.2629 14.2629 0 0 0 0 1 -3.31855 0 2
270 1 14.2694 16.0294 1.744 -6.58993 -0.471916 4.91282 1 -7.39328 0.0421916 4
271 1 16.0049 14.2548 1.79806 -2.29383 -2.83592 0.541447 1 -7.33989 0.00846331 4
272 1 16.0457 16.0457 0 0 0 0 1 -3.35139 0 2
273 1 15.1543 15.1543 0.891429 0 0 0 1 -7.01857 0 4
274 1 15.1558 16.9312 2.65672 -0.485267 -3.15058 12.8845 1 -7.28749 0.109654 4
275 1 16.9023 15.187 2.67841 -3.56585 4.11295 2.54778 1 -7.30241 0.0224838 4
276 1 16.9371 16.9371 0.891429 0 0 0 1 -7.0275 0 4
277 1 14.2456 14.2365 3.5526 5.41641 -4.88517 -8.77647 1 -7.35227 0.0810577 4
278 1 16.0114 16.0862 3.60042 -3.39728 -2.45243 -5.33432 1 -7.33785 0.0286383 4
279 1 18.7267 13.3806 2.64472 4.63117 3.36334 -6.36082 1 -7.3586 0.0455739 4
280 1 20.5029 13.3714 0.891429 0 0 0 1 -7.03864 0 4
281 1 17.8286 14.2629 0 0 0 0 1 -3.32851 0 2
282 1 17.7939 16.059 1.77846 6.4824 6.64754 3.22445 1 -7.35653 0.0601316 4
283 1 19.6402 14.2568 1.774 7.46966 2.50212 -1.77404 1 -7.34728 0.0405845 4
284 1 19.6114 16.0457 0 0 0 0 1 -3.31137 0 2
285 1 18.72 15.1543 0.891429 0 0 0 1 -6.98886 0 4
286 1 18.6856 16.9472 2.69141 -2.89076 11.8592 -2.06418 1 -7.32404 0.095392 4
287 1 20.4911 15.1841 2.68726 11.3509 11.7058 -0.912853 1 -7.375 0.166003 4
288 1 20.5029 16.9371 0.891429 0 0 0 1 -7.05963 0 4
289 1 17.8162 14.2937 3.56235 -1.33973 -0.743832 -0.360569 1 -7.34942 0.00154248 4
290 1 19.6088 16.0302 3.55917 -2.54381 3.31341 -2.13559 1 -7.34517 0.0136999 4
291 1 3.56183 21.3827 3.56981 10.2872 -4.32102 11.167 1 -7.3189 0.155109 4
293 1 0 17.8286 0 0 0 0 1 -3.33532 0 2
294 1 1.75191 17.8243 1.77787 -1.0328 5.16645 -4.70753 1 -7.32074 0.0310713 4
295 1 1.78286 19.6114 0 0 0 0 1 -3.33533 0 2
296 1 0.891429 18.72 0.891429 0 0 0 1 -7.02363 0 4
297 1 0.883313 20.4802 2.66822 0.613921 0.524672 3.93546 1 -7.31566 0.010046 4
298 1 2.6685 18.7253 2.68606 4.59609 3.35683 -4.10749 1 -7.30909 0.0306631 4
299 1 2.67429 20.5029 0.891429 0 0 0 1 -7.03616 0 4
300 1 3.56572 17.8286 0 0 0 0 1 -3.33459 0 2
301 1 3.51312 19.6198 1.76958 0.232294 7.76294 9.44302 1 -7.33675 0.0930451 4
302 1 1.76925 19.6095 3.60584 2.7968 2.96011 0.789598 1 -7.34035 0.0107106 4
303 1 3.59236 17.8018 3.52866 -8.14224 0.310275 2.23095 1 -7.35979 0.0444223 4
304 1 -0.000354506 17.8562 3.54446 -7.45781 -1.51295 -3.10062 1 -7.31518 0.0420274 4
350 1 0.0128765 21.3943 3.606 -6.45949 1.66874 15.6378 1 -7.34248 0.179913 4
307 1 5.38085 17.8257 1.78901 1.09273 -5.60284 -1.78993 1 -7.3919 0.0222764 4
308 1 5.34857 19.6114 0 0 0 0 1 -3.33952 0 2
309 1 4.45714 18.72 0.891429 0 0 0 1 -6.95969 0 4
310 1 4.44249 20.5125 2.67342 -7.6065 6.37743 0.747987 1 -7.29783 0.0616762 4
311 1 6.20725 18.7255 2.68227 -3.69837 9.87408 5.66262 1 -7.35101 0.0891568 4
312 1 6.24 20.5029 0.891429 0 0 0 1 -6.99362 0 4
313 1 7.13143 17.8286 0 0 0 0 1 -3.32506 0 2
314 1 7.1444 19.6333 1.7858 -0.0836 1.29837 -5.3813 1 -7.31489 0.019078 4
315 1 8.02286 18.72 0.891429 0 0 0 1 -7.00968 0 4
316 1 8.00506 20.5577 2.70921 6.45396 5.21564 1.23927 1 -7.39287 0.043814 4
317 1 5.33516 19.6177 3.58171 -1.75456 5.43238 2.77775 1 -7.37207 0.025087 4
318 1 7.13789 17.8674 3.57222 -2.13232 -5.5077 -1.17129 1 -7.31987 0.0225651 4
319 1 10.6991 21.39 3.57423 -1.38619 -1.43385 -3.86234 1 -7.35952 0.0117608 4
322 1 8.91303 17.8206 1.78173 -9.21787 -2.19103 -3.9482 1 -7.31195 0.0655776 4
323 1 8.91429 19.6114 0 0 0 0 1 -3.32866 0 2
324 1 9.78866 18.7686 2.66379 6.28868 0.909692 -3.73653 1 -7.35026 0.0338206 4
325 1 9.80572 20.5029 0.891429 0 0 0 1 -6.98184 0 4
326 1 10.6971 17.8286 0 0 0 0 1 -3.32595 0 2
327 1 10.6672 19.622 1.75762 -1.35799 -0.101198 -3.15566 1 -7.41501 0.00735245 4
328 1 12.496 17.8215 1.77561 -2.54215 4.19784 -6.13694 1 -7.38733 0.0384325 4
329 1 12.48 19.6114 0 0 0 0 1 -3.34052 0 2
330 1 11.5886 18.72 0.891429 0 0 0 1 -7.02876 0 4
331 1 11.5359 20.5156 2.66886 1.94565 0.594679 0.899256 1 -7.26103 0.00307968 4
332 1 8.91002 19.6454 3.58382 -3.53167 0.637076 2.21001 1 -7.39554 0.011056 4
333 1 10.6203 17.8218 3.55142 4.85629 2.84499 0.977693 1 -7.30735 0.0203119 4
334 1 12.4968 19.6332 3.56787 3.84623 -8.55835 -6.91412 1 -7.27281 0.0845528 4
335 1 16.0508 21.3831 1.76161 0.0290455 0.103287 2.72137 1 -7.31893 0.00461675 4
336 1 14.282 21.3676 3.59353 5.53696 7.20601 -5.89314 1 -7.42264 0.0730191 4
337 1 13.4054 18.7319 2.67582 -0.995381 7.44885 0.625445 1 -7.31149 0.0353957 4
338 1 13.3714 20.5029 0.891429 0 0 0 1 -7.00552 0 4
339 1 14.2629 17.8286 0 0 0 0 1 -3.33593 0 2
340 1 14.2768 19.6286 1.76578 -3.73433 -2.25892 -3.88411 1 -7.36558 0.021246 4
341 1 16.0888 17.8329 1.76297 -4.58991 -1.99561 0.829426 1 -7.34191 0.0160198 4
342 1 16.0457 19.6114 0 0 0 0 1 -3.31803 0 2
343 1 15.1543 18.72 0.891429 0 0 0 1 -7.0112 0 4
344 1 15.1601 20.5376 2.69548 -3.47458 0.969486 6.26128 1 -7.31712 0.0325008 4
345 1 16.9816 18.743 2.68811 -2.49275 3.42609 1.80407 1 -7.34798 0.0131995 4
346 1 16.9371 20.5029 0.891429 0 0 0 1 -7.04286 0 4
347 1 14.2609 17.8216 3.57909 2.33985 3.45691 -2.71968 1 -7.30586 0.0154497 4
348 1 16.0995 19.6545 3.5814 4.41302 -0.366482 5.57296 1 -7.36605 0.0315364 4
305 1 21.3813 19.6299 1.77578 -7.32998 5.68299 -7.42279 1 -7.37184 0.0878385 4
351 1 17.8286 17.8286 0 0 0 0 1 -3.32401 0 2
352 1 17.8227 19.6326 1.81807 -4.83622 -1.08975 -2.10925 1 -7.30815 0.0180663 4
353 1 19.6105 17.7805 1.77954 -1.40185 5.43227 2.60775 1 -7.32161 0.0238234 4
354 1 19.6114 19.6114 0 0 0 0 1 -3.34429 0 2
355 1 18.72 18.72 0.891429 0 0 0 1 -6.93491 0 4
356 1 18.737 20.4956 2.72163 0.0996091 -2.94863 2.74581 1 -7.29669 0.0101106 4
357 1 20.4438 18.7401 2.66483 0.813631 1.41736 2.3665 1 -7.30558 0.00514821 4
358 1 20.5029 20.5029 0.891429 0 0 0 1 -7.02867 0 4
359 1 17.8334 17.8733 3.52996 0.713501 0.0111776 -1.91435 1 -7.3722 0.00259796 4
360 1 19.5817 19.6185 3.56324 -6.33066 1.55929 -5.4419 1 -7.31516 0.0448912 4
361 1 0.89526 0.897371 4.49741 -0.0886297 -1.46105 5.06424 1 -7.36862 0.0172967 4
362 1 0.952433 2.67743 6.29187 10.6585 -6.21605 2.72494 1 -7.34125 0.0993815 4
363 1 2.69179 0.882722 6.2419 2.49446 4.98523 5.92677 1 -7.27572 0.0412055 4
364 1 2.68201 2.68844 4.48584 -6.10746 -1.11169 2.86403 1 -7.37272 0.0290919 4
365 1 3.55549 1.84249 5.30918 5.87952 -14.1542 -4.11387 1 -7.32358 0.156748 4
366 1 1.80211 3.58194 5.36071 4.40605 -13.363 6.43865 1 -7.33049 0.149033 4
367 1 1.80249 1.79219 7.16221 -2.13003 -0.5688 3.68852 1 -7.2827 0.0114935 4
368 1 0.925106 0.866854 8.07272 -7.12487 0.964081 -0.661978 1 -7.31763 0.032448 4
369 1 2.66655 2.74503 8.02927 10.8529 5.18368 4.23805 1 -7.32302 0.101217 4
370 1 3.59986 3.59209 7.10333 7.79319 -1.63386 -0.342005 1 -7.39324 0.0395367 4
411 1 0.0443735 1.79374 5.42458 -1.07139 7.62717 1.4339 1 -7.31704 0.0382031 4
371 1 0.0175986 3.56633 7.1668 -0.0199605 3.70495 -3.85816 1 -7.26399 0.0178092 4
372 1 4.44775 0.927472 4.49585 1.11481 6.90991 -2.05095 1 -7.23743 0.0331106 4
373 1 4.43565 2.69953 6.24719 -0.00471061 -3.91066 -1.38225 1 -7.38837 0.0107082 4
374 1 6.26825 0.92502 6.26687 7.884 -5.02326 -0.300591 1 -7.35202 0.0544504 4
375 1 6.2407 2.70732 4.47144 -4.23701 -4.87991 0.665432 1 -7.2796 0.0262717 4
376 1 7.16392 1.78656 5.36175 -3.2522 -4.47335 -5.88221 1 -7.36548 0.0405748 4
377 1 7.97677 0.885822 4.45398 4.20035 -3.14244 -8.72458 1 -7.29199 0.0645058 4
378 1 8.04702 2.67884 6.2372 -4.46467 -0.0830031 2.90228 1 -7.34227 0.0176541 4
379 1 5.36033 3.57498 5.35952 1.61431 3.73899 -0.877502 1 -7.34823 0.0108028 4
380 1 5.35002 1.83587 7.13682 -2.60931 -3.7106 4.94872 1 -7.32778 0.0280508 4
381 1 4.45903 0.910968 8.03431 0.648255 -2.05028 -2.51631 1 -7.36149 0.0068191 4
382 1 6.30005 2.69378 8.03019 0.47491 11.2878 -5.54726 1 -7.33495 0.0985995 4
383 1 8.08265 0.880246 8.04597 11.3555 2.16471 3.39563 1 -7.37124 0.0903533 4
384 1 7.19197 3.55914 7.15735 -7.9312 -3.57648 0.844136 1 -7.34761 0.0475581 4
665 1 7.14249 0.0193777 7.17525 5.0943 -2.77858 -3.4533 1 -7.31717 0.0283812 4
385 1 5.35823 0.044844 5.43461 -1.85213 -1.49503 0.761833 1 -7.36434 0.0038876 4
386 1 9.81126 0.870208 6.27711 -1.11648 0.231792 11.9042 1 -7.38104 0.089013 4
387 1 9.85464 2.6962 4.49428 -2.14376 0.185781 -1.18496 1 -7.37295 0.00375594 4
388 1 10.7137 1.79228 5.39699 -6.13929 -1.76538 3.18343 1 -7.33016 0.0317074 4
389 1 11.5941 0.901491 4.47717 -2.30468 -3.08683 10.1435 1 -7.34026 0.0732785 4
390 1 11.5933 2.64925 6.2663 -0.308695 -1.32884 0.344032 1 -7.29807 0.00123208 4
391 1 8.96099 3.59815 5.37938 3.76409 5.90469 -9.20776 1 -7.36058 0.0832909 4
392 1 12.4201 3.57188 5.36861 3.19042 1.21956 -1.1412 1 -7.30694 0.00807191 4
393 1 8.93996 1.75725 7.17845 5.1612 -0.532495 4.71341 1 -7.32414 0.0305847 4
394 1 9.80361 2.66536 8.02274 5.21332 5.33309 5.81062 1 -7.24295 0.0556349 4
395 1 12.4655 1.71918 7.18531 0.175867 -1.0589 -0.252134 1 -7.32982 0.000756726 4
396 1 11.5857 0.863777 8.07542 -0.435957 4.95491 -6.26623 1 -7.35468 0.0398395 4
397 1 10.6902 3.59874 7.12834 -2.52367 -0.897299 -3.7085 1 -7.31361 0.0130255 4
680 1 12.4861 0.00503266 5.3998 -1.53602 -2.6766 -2.68863 1 -7.35023 0.0104271 4
679 1 8.92339 0.0334105 5.3596 0.537623 3.34432 -4.88992 1 -7.34467 0.0220244 4
398 1 13.3707 0.860467 6.2771 -0.458328 -5.89206 -4.51267 1 -7.36711 0.0344143 4
399 1 13.3768 2.66605 4.50246 -3.57952 5.14207 -0.837352 1 -7.25425 0.024869 4
400 1 14.2555 1.7833 5.41811 -0.680961 -2.74298 2.12202 1 -7.36499 0.00777448 4
401 1 15.1564 0.866383 4.48531 6.48866 1.03899 1.05025 1 -7.30607 0.0275643 4
402 1 15.1584 2.68613 6.26175 -9.8346 -0.643238 0.284416 1 -7.36497 0.0605086 4
403 1 16.9408 0.963678 6.26645 4.46959 -4.16951 3.91918 1 -7.29685 0.0328155 4
404 1 16.9403 2.66145 4.51971 -1.73067 9.83211 -0.43865 1 -7.28354 0.0621542 4
405 1 16.0382 3.563 5.39729 -2.52652 -3.37617 5.55555 1 -7.33546 0.0302785 4
406 1 13.3461 2.68031 8.01181 -0.686706 -2.68648 4.38528 1 -7.29071 0.0167553 4
407 1 16.0157 1.86208 7.17365 1.03548 1.09049 4.11409 1 -7.31594 0.0119426 4
408 1 15.1355 0.904496 8.05 -1.2853 -1.4056 -4.20427 1 -7.31533 0.0132599 4
409 1 16.9226 2.63566 8.07923 9.00433 -0.0538956 5.14624 1 -7.32282 0.0669511 4
410 1 14.1864 3.58304 7.12246 9.98937 1.55795 -2.38378 1 -7.35022 0.067158 4
694 1 16.049 0.0170258 5.37179 4.89129 -0.741161 6.54634 1 -7.33309 0.0419071 4
412 1 17.8558 1.7944 5.43907 2.29709 2.75246 0.487334 1 -7.32142 0.00814765 4
413 1 18.7167 0.877538 4.52501 -0.831993 1.12575 -5.91268 1 -7.40869 0.0229796 4
414 1 18.7479 2.7315 6.26959 0.94114 2.15315 -2.58154 1 -7.37042 0.00758498 4
415 1 20.5171 0.875828 6.2739 6.3332 -1.59853 3.93047 1 -7.28028 0.0361712 4
416 1 20.4919 2.66542 4.5213 -3.24655 1.10507 3.38445 1 -7.27872 0.0144501 4
417 1 19.6278 3.60197 5.3614 -2.32936 1.04773 -5.34457 1 -7.40119 0.0218397 4
418 1 19.622 1.82846 7.19614 0.873734 -1.69584 3.57793 1 -7.26541 0.0102332 4
419 1 18.7076 0.870154 8.07016 2.8829 -1.0652 4.70454 1 -7.26893 0.0196553 4
420 1 20.5288 2.68079 8.07966 3.74224 4.647 2.76417 1 -7.32289 0.0269135 4
421 1 17.8101 3.58987 7.16122 -0.164318 -2.83811 5.02848 1 -7.27329 0.0207688 4
709 1 17.7783 0.0284848 7.13531 -15.5132 6.94022 0.030556 1 -7.32882 0.179773 4
422 1 19.5817 0.0302932 5.38264 8.50062 -0.343563 1.52919 1 -7.30304 0.0465058 4
423 1 0.933483 4.49552 4.45117 2.51637 5.12977 -0.677936 1 -7.3758 0.0206062 4
424 1 0.895811 6.27483 6.27574 -3.76211 3.02459 8.37979 1 -7.3584 0.0582108 4
425 1 2.69208 4.48923 6.2636 9.11615 6.66617 -2.47118 1 -7.32434 0.0831865 4
426 1 2.67174 6.30359 4.50292 -4.22861 -2.14121 10.3596 1 -7.39778 0.0807835 4
427 1 3.55337 5.36121 5.34501 -0.52642 -1.50058 3.28069 1 -7.27746 0.00827314 4
428 1 1.79592 7.15695 5.3574 -1.42751 -8.70982 -7.27572 1 -7.35813 0.081435 4
429 1 0.89801 8.06527 4.50273 2.49329 0.350962 -3.69551 1 -7.34118 0.0124463 4
430 1 2.69728 8.03607 6.2248 5.93718 10.022 2.63676 1 -7.37619 0.0887844 4
431 1 1.81441 5.37659 7.15804 -2.88707 1.91689 5.22697 1 -7.37168 0.0244805 4