ITEM: TIMESTEP
49124950
ITEM: NUMBER OF ATOMS
3060
ITEM: BOX BOUNDS pp pp mm
0.0000000000000000e+00 2.1394294200000001e+01
0.0000000000000000e+00 2.1394294200000001e+01
-5.3491084073550004e-03 5.3485735499999997e+01
ITEM: ATOMS id type x y z vx vy vz c_clusts c_atom_pe c_atom_ke c_atom_coord
1 1 0 0 0 0 0 0 1 -3.32736 0 2
2 1 1.78286 1.78286 0 0 0 0 1 -3.32832 0 2
3 1 0.891429 0.891429 0.891429 0 0 0 1 -7.01403 0 4
4 1 0.888773 2.65599 2.70132 0.851892 -3.63009 -1.5427 1 -7.33256 0.0101351 4
5 1 2.64897 0.859318 2.70299 3.12047 2.76352 9.48597 1 -7.31694 0.0668224 4
6 1 2.67429 2.67429 0.891429 0 0 0 1 -7.01403 0 4
7 1 3.56572 0 0 0 0 0 1 -3.33566 0 2
8 1 3.5423 1.75907 1.76048 9.20857 7.59518 -3.47606 1 -7.34267 0.0962069 4
9 1 0 3.56572 0 0 0 0 1 -3.35265 0 2
10 1 1.77286 3.5504 1.81155 -0.54983 7.33605 -5.93612 1 -7.36215 0.0556184 4
11 1 3.56572 3.56572 0 0 0 0 1 -3.34669 0 2
12 1 1.79152 1.7562 3.64385 -3.40184 -2.05135 5.13619 1 -7.33391 0.0262421 4
13 1 3.53147 3.6173 3.57526 -5.79166 -3.16616 0.0500452 1 -7.30003 0.0271194 4
292 1 1.79587 0.00968006 1.77892 5.33631 -0.933388 -3.27153 1 -7.33709 0.0249284 4
56 1 0.0506508 3.56228 3.59805 9.89178 -1.14078 1.8582 1 -7.27342 0.063862 4
14 1 5.34857 1.78286 0 0 0 0 1 -3.32315 0 2
15 1 4.45714 0.891429 0.891429 0 0 0 1 -7.04251 0 4
16 1 4.42029 2.64648 2.67606 6.60765 6.17701 -5.47267 1 -7.29959 0.0695665 4
17 1 6.19616 0.897533 2.70616 -1.41638 2.59319 -1.7699 1 -7.33276 0.00738402 4
18 1 6.24 2.67429 0.891429 0 0 0 1 -6.98253 0 4
19 1 7.13143 0 0 0 0 0 1 -3.32504 0 2
20 1 7.15501 1.7666 1.74996 -4.38882 -1.50078 2.95033 1 -7.24966 0.0188088 4
21 1 8.02286 0.891429 0.891429 0 0 0 1 -7.04885 0 4
22 1 8.03351 2.70831 2.68891 5.46971 3.11825 -5.17182 1 -7.25856 0.0413222 4
23 1 5.32959 3.54468 1.80093 3.88696 3.58424 -2.43366 1 -7.33504 0.0210865 4
24 1 7.13143 3.56572 0 0 0 0 1 -3.34521 0 2
25 1 5.36003 1.82716 3.518 5.02298 5.80005 -4.54344 1 -7.3221 0.0494914 4
26 1 7.19535 3.60742 3.61048 -0.417794 -5.24841 2.33064 1 -7.27317 0.0206348 4
306 1 7.10137 0.00598747 3.55243 5.64235 -8.4432 -0.752823 1 -7.36923 0.0645397 4
27 1 5.34163 0.0469633 1.76172 -3.81058 -6.64422 -1.32692 1 -7.33004 0.0376113 4
28 1 8.91429 1.78286 0 0 0 0 1 -3.35023 0 2
29 1 9.84161 0.920175 2.65403 4.7416 -1.31383 -7.59868 1 -7.32884 0.0510071 4
30 1 9.80572 2.67429 0.891429 0 0 0 1 -7.03485 0 4
31 1 10.6971 0 0 0 0 0 1 -3.34958 0 2
32 1 10.7079 1.79777 1.79659 -3.8515 3.76737 -2.29927 1 -7.36154 0.0213578 4
33 1 12.48 1.78286 0 0 0 0 1 -3.30961 0 2
34 1 11.5886 0.891429 0.891429 0 0 0 1 -7.0002 0 4
35 1 11.6281 2.68711 2.67553 7.19841 -0.947906 5.01972 1 -7.40291 0.0484953 4
36 1 8.95771 3.57409 1.78564 0.491911 -1.20463 -0.747243 1 -7.31742 0.00140138 4
37 1 10.6971 3.56572 0 0 0 0 1 -3.31543 0 2
38 1 12.4895 3.56039 1.77609 -1.39587 -4.64007 -8.11635 1 -7.40202 0.0556162 4
39 1 8.9395 1.82783 3.57361 -0.841691 -2.64163 0.254956 1 -7.22537 0.00482484 4
40 1 12.4896 1.79713 3.58869 6.36641 -9.48541 2.08318 1 -7.32656 0.0839303 4
41 1 10.7258 3.55314 3.57499 4.9395 1.54599 -2.44413 1 -7.32135 0.0203922 4
321 1 12.5001 0.0381163 1.78301 7.93086 -2.86538 -4.09085 1 -7.27663 0.0546764 4
320 1 8.90258 0.0376693 1.80819 5.24388 5.79458 -6.78287 1 -7.34649 0.066651 4
42 1 13.4251 0.862279 2.69906 -0.681203 7.44357 4.23557 1 -7.3338 0.0459418 4
43 1 13.3714 2.67429 0.891429 0 0 0 1 -7.02801 0 4
44 1 14.2629 0 0 0 0 0 1 -3.30144 0 2
45 1 14.2513 1.73878 1.78033 2.28766 1.38057 -0.194581 1 -7.30987 0.00446728 4
46 1 16.0457 1.78286 0 0 0 0 1 -3.34258 0 2
47 1 15.1543 0.891429 0.891429 0 0 0 1 -7.02772 0 4
48 1 15.189 2.62872 2.71838 -2.87081 4.18491 -1.42196 1 -7.29942 0.0172891 4
49 1 16.9687 0.846156 2.70331 7.98149 -1.14509 -1.7459 1 -7.31655 0.0423645 4
50 1 16.9371 2.67429 0.891429 0 0 0 1 -7.02221 0 4
51 1 14.2629 3.56572 0 0 0 0 1 -3.33589 0 2
52 1 16.0342 3.56459 1.76982 -6.86268 5.46776 -1.92617 1 -7.34301 0.0502317 4
53 1 16.0493 1.75471 3.59314 9.28603 3.68599 -4.2051 1 -7.37051 0.0731349 4
54 1 14.3279 3.57307 3.58959 -2.80099 -0.505786 0.699058 1 -7.33138 0.00534666 4
55 1 21.3814 1.75744 1.82091 -0.621979 0.851898 -1.94151 1 -7.34722 0.00303872 4
57 1 17.8286 0 0 0 0 0 1 -3.34773 0 2
58 1 17.8542 1.78558 1.78694 -0.867544 -0.17825 -2.05271 1 -7.32331 0.00311091 4
59 1 19.6114 1.78286 0 0 0 0 1 -3.33236 0 2
60 1 18.72 0.891429 0.891429 0 0 0 1 -7.02925 0 4
61 1 18.7809 2.67415 2.70319 0.215876 -2.66821 -5.96514 1 -7.33393 0.026608 4
62 1 20.5119 0.895816 2.71499 5.65596 0.388736 2.54788 1 -7.34748 0.024046 4
63 1 20.5029 2.67429 0.891429 0 0 0 1 -6.9994 0 4
64 1 17.8286 3.56572 0 0 0 0 1 -3.33066 0 2
65 1 19.6604 3.55403 1.80682 -6.67499 1.31529 0.171245 1 -7.36274 0.0288276 4
66 1 19.6065 1.75844 3.62872 -0.949373 -1.58597 -3.90295 1 -7.3597 0.011608 4
67 1 17.8778 3.56048 3.60834 -9.75631 1.36435 -3.18429 1 -7.26738 0.0667158 4
68 1 19.6238 0.0193087 1.76133 -2.20862 2.27498 -2.1201 1 -7.31214 0.00905528 4
349 1 17.8464 -0.00694711 3.59432 -0.508082 -10.806 1.69423 1 -7.38938 0.0746277 4
69 1 1.78286 5.34857 0 0 0 0 1 -3.35574 0 2
70 1 0.891429 4.45714 0.891429 0 0 0 1 -6.96253 0 4
71 1 0.88887 6.26848 2.71776 3.34502 8.45096 11.3468 1 -7.30109 0.131554 4
72 1 2.68697 4.47365 2.69079 3.78741 9.27156 0.456361 1 -7.36759 0.0625628 4
73 1 2.67429 6.24 0.891429 0 0 0 1 -7.02458 0 4
74 1 3.57264 5.36936 1.78222 11.8077 6.68516 -3.33387 1 -7.38956 0.121515 4
75 1 0 7.13143 0 0 0 0 1 -3.35686 0 2
76 1 1.80518 7.17267 1.77947 -3.25059 -4.06571 -2.04955 1 -7.31216 0.0194801 4
77 1 0.891429 8.02286 0.891429 0 0 0 1 -7.02948 0 4
78 1 2.71222 8.06657 2.66834 0.675536 3.26743 -1.82294 1 -7.32285 0.00899751 4
79 1 3.56572 7.13143 0 0 0 0 1 -3.31254 0 2
80 1 1.83728 5.37889 3.6227 -1.72262 5.10446 -1.74503 1 -7.30558 0.01996 4
81 1 3.60167 7.14352 3.60038 -5.12084 0.963043 7.76692 1 -7.2843 0.054447 4
128 1 0.00720682 5.37403 1.83382 0.508147 7.39274 2.09879 1 -7.33038 0.0369196 4
83 1 5.34857 5.34857 0 0 0 0 1 -3.34171 0 2
84 1 4.45714 4.45714 0.891429 0 0 0 1 -6.98635 0 4
85 1 4.47705 6.23164 2.6458 1.00627 -4.86828 2.17572 1 -7.34763 0.0183283 4
86 1 6.23852 4.4574 2.6508 -6.82765 -5.07637 1.26363 1 -7.26059 0.0460491 4
87 1 6.24 6.24 0.891429 0 0 0 1 -7.03136 0 4
88 1 7.14144 5.34511 1.78844 -3.72253 -1.38742 -4.45632 1 -7.34252 0.0221838 4
89 1 8.02286 4.45714 0.891429 0 0 0 1 -7.00469 0 4
90 1 8.01399 6.18273 2.76032 -2.98731 -5.78262 8.86978 1 -7.32721 0.0753358 4
91 1 5.36468 7.13545 1.77641 -4.99328 -2.2943 -0.750284 1 -7.3845 0.0191456 4
92 1 4.45714 8.02286 0.891429 0 0 0 1 -7.01659 0 4
93 1 6.19549 7.99271 2.67245 -1.53666 8.00304 -4.69701 1 -7.33744 0.0550672 4
94 1 7.13143 7.13143 0 0 0 0 1 -3.31905 0 2
95 1 8.02286 8.02286 0.891429 0 0 0 1 -7.00247 0 4
96 1 5.31825 5.35535 3.53444 -3.0965 0.392084 -2.95082 1 -7.31614 0.0114834 4
97 1 7.13862 7.12131 3.5526 6.31877 -6.12985 -2.38294 1 -7.32039 0.0517736 4
98 1 8.91429 5.34857 0 0 0 0 1 -3.31954 0 2
99 1 9.80156 4.44222 2.68266 -10.7281 4.3267 -2.5553 1 -7.36834 0.0873523 4
100 1 9.80572 6.24 0.891429 0 0 0 1 -7.02021 0 4
101 1 10.678 5.32192 1.78129 -6.55591 0.407822 -4.90815 1 -7.34782 0.0418496 4
102 1 12.48 5.34857 0 0 0 0 1 -3.34549 0 2
103 1 11.5886 4.45714 0.891429 0 0 0 1 -7.03331 0 4
104 1 11.5858 6.23099 2.65619 4.33726 1.17416 -6.21425 1 -7.37049 0.0366032 4
105 1 8.9402 7.09738 1.81133 -9.98183 -1.89503 -0.701823 1 -7.2513 0.0645585 4
106 1 9.81277 8.01296 2.70394 2.3629 -4.62978 -1.4172 1 -7.35976 0.0180669 4
107 1 10.6971 7.13143 0 0 0 0 1 -3.34429 0 2
108 1 12.4919 7.09835 1.80856 -1.41508 -6.33684 -4.77099 1 -7.31345 0.0404081 4
109 1 11.5886 8.02286 0.891429 0 0 0 1 -6.95073 0 4
110 1 8.91035 5.34106 3.59927 3.32616 1.83812 0.898314 1 -7.34951 0.00949138 4
111 1 12.4645 5.34849 3.57617 -2.70633 5.96084 -0.668077 1 -7.31122 0.0269524 4
112 1 10.7011 7.13744 3.55794 0.450744 -3.59947 1.13399 1 -7.39141 0.00899111 4
113 1 13.4019 4.40782 2.66666 5.2046 -7.75553 3.65871 1 -7.29452 0.06263 4
114 1 13.3714 6.24 0.891429 0 0 0 1 -7.03421 0 4
115 1 14.2405 5.37218 1.78726 -3.43715 2.7038 -7.66474 1 -7.2897 0.04847 4
116 1 16.0457 5.34857 0 0 0 0 1 -3.33294 0 2
117 1 15.1543 4.45714 0.891429 0 0 0 1 -6.99284 0 4
118 1 15.1727 6.27793 2.64279 8.82447 -6.38871 3.21791 1 -7.26081 0.0803191 4
119 1 16.9231 4.46133 2.66781 -0.364282 2.39094 -0.421295 1 -7.29144 0.00375123 4
120 1 16.9371 6.24 0.891429 0 0 0 1 -7.01073 0 4
121 1 13.3916 8.05083 2.71922 -2.68045 0.808675 -10.28 1 -7.26679 0.0706565 4
122 1 14.2629 7.13143 0 0 0 0 1 -3.35909 0 2
123 1 16.0771 7.14851 1.75193 2.7212 -4.50528 -4.58589 1 -7.36858 0.0303326 4
124 1 15.1543 8.02286 0.891429 0 0 0 1 -7.00294 0 4
125 1 16.9545 8.05227 2.6683 -7.47933 -3.07604 -6.19967 1 -7.32838 0.0646317 4
126 1 16.0322 5.31017 3.60374 -7.99278 -2.37642 6.59251 1 -7.29721 0.0703299 4
127 1 14.2661 7.16002 3.57568 6.08538 -8.42916 3.45051 1 -7.31846 0.0746841 4
82 1 21.3782 7.17115 3.55789 -4.15401 -1.8583 6.92465 1 -7.30089 0.0427357 4
129 1 17.8223 5.31919 1.79695 -0.817378 0.280337 0.69167 1 -7.36817 0.000762537 4
130 1 19.6114 5.34857 0 0 0 0 1 -3.33308 0 2
131 1 18.72 4.45714 0.891429 0 0 0 1 -6.99109 0 4
132 1 18.7124 6.22316 2.66722 2.70574 2.50734 -0.178415 1 -7.39363 0.00848964 4
133 1 20.5189 4.44457 2.68734 -6.3837 1.94721 -2.01027 1 -7.33314 0.0302402 4
134 1 20.5029 6.24 0.891429 0 0 0 1 -6.97645 0 4
135 1 17.8286 7.13143 0 0 0 0 1 -3.31513 0 2
136 1 19.5607 7.11711 1.7808 -1.79438 -4.98645 5.44984 1 -7.36197 0.0359671 4
137 1 18.72 8.02286 0.891429 0 0 0 1 -7.03933 0 4
138 1 20.4696 8.02935 2.62833 0.80664 -1.5774 3.03434 1 -7.32877 0.00768453 4
139 1 19.6012 5.33288 3.57683 0.356724 2.44589 11.7872 1 -7.34662 0.0902818 4
140 1 17.8373 7.10317 3.56845 1.08991 2.80928 5.24898 1 -7.34286 0.0228006 4
141 1 1.78286 8.91429 0 0 0 0 1 -3.32011 0 2
142 1 0.916661 9.79272 2.6714 2.62601 -6.12501 1.48942 1 -7.3186 0.0290238 4
143 1 2.67429 9.80572 0.891429 0 0 0 1 -7.00123 0 4
144 1 3.54667 8.92217 1.76241 3.34891 -4.36435 3.02049 1 -7.34588 0.024515 4
145 1 0 10.6971 0 0 0 0 1 -3.33726 0 2
146 1 1.7475 10.6907 1.83344 3.80332 0.183603 1.17847 1 -7.34096 0.00988897 4
147 1 1.78286 12.48 0 0 0 0 1 -3.33698 0 2
148 1 0.891429 11.5886 0.891429 0 0 0 1 -7.01051 0 4
149 1 2.58414 11.5843 2.69108 2.22223 -0.599938 -0.0255981 1 -7.24699 0.00329816 4
150 1 3.56572 10.6971 0 0 0 0 1 -3.35899 0 2
151 1 3.57917 12.4845 1.80243 -2.33433 1.95564 -1.12671 1 -7.32364 0.0065623 4
152 1 1.83651 8.93795 3.5926 9.97745 -0.104886 3.87636 1 -7.29862 0.0713217 4
153 1 1.73874 12.4804 3.64467 1.43383 -0.467716 -6.4328 1 -7.34153 0.0271724 4
154 1 3.54007 10.696 3.5636 3.43147 -2.90795 -2.77 1 -7.28165 0.0173682 4
205 1 0.021523 8.88733 1.77539 7.79864 -5.71945 -1.6322 1 -7.37727 0.0598743 4
204 1 0.0274687 12.5029 1.75508 12.8013 -1.76385 -1.01066 1 -7.32026 0.104571 4
155 1 5.34857 8.91429 0 0 0 0 1 -3.32331 0 2
156 1 4.46658 9.81142 2.67058 -1.37159 -3.39029 6.38251 1 -7.3404 0.0336806 4
157 1 6.24 9.80572 0.891429 0 0 0 1 -7.00925 0 4
158 1 7.11779 8.9028 1.75092 3.65482 3.0167 -2.79982 1 -7.30646 0.0188578 4
159 1 7.9832 9.78748 2.71313 3.92604 2.58334 3.32183 1 -7.29632 0.020616 4
160 1 5.34447 10.7098 1.81976 2.7857 -8.04104 1.90942 1 -7.33607 0.0473445 4
161 1 5.34857 12.48 0 0 0 0 1 -3.34018 0 2
162 1 4.45714 11.5886 0.891429 0 0 0 1 -7.02194 0 4
163 1 6.21251 11.5962 2.75256 3.94325 0.668679 -7.22428 1 -7.35475 0.0424411 4
164 1 7.13143 10.6971 0 0 0 0 1 -3.33095 0 2
165 1 7.08486 12.469 1.80082 5.84165 0.00170683 -0.156326 1 -7.27013 0.0212554 4
166 1 8.02286 11.5886 0.891429 0 0 0 1 -7.03467 0 4
167 1 5.34567 8.91223 3.56373 5.21334 -13.2696 -0.22455 1 -7.33361 0.126546 4
168 1 5.33443 12.5172 3.61564 -8.55741 -1.51537 1.301 1 -7.361 0.0480626 4
169 1 7.17542 10.7072 3.57043 1.34984 3.12183 4.91835 1 -7.31262 0.0222568 4
170 1 8.91429 8.91429 0 0 0 0 1 -3.33374 0 2
171 1 9.80572 9.80572 0.891429 0 0 0 1 -6.99601 0 4
172 1 10.6774 8.94193 1.7759 -5.45612 -1.65369 -2.16142 1 -7.33716 0.0231391 4
173 1 12.48 8.91429 0 0 0 0 1 -3.34005 0 2
174 1 11.5996 9.79261 2.69614 -4.54843 3.02624 3.62187 1 -7.31415 0.0267421 4
175 1 8.86916 10.7388 1.78173 -4.07851 -1.94089 0.444696 1 -7.26687 0.0128214 4
176 1 8.91429 12.48 0 0 0 0 1 -3.33066 0 2
177 1 9.81994 11.5814 2.65046 1.63482 2.73224 9.19262 1 -7.39005 0.0589077 4
178 1 10.6971 10.6971 0 0 0 0 1 -3.32514 0 2
179 1 10.7074 12.4512 1.81967 -0.25567 4.89323 -0.968735 1 -7.32856 0.015528 4
180 1 12.4783 10.6634 1.78225 -2.05124 -1.48867 -2.65045 1 -7.31569 0.00837077 4
181 1 12.48 12.48 0 0 0 0 1 -3.33634 0 2
182 1 11.5886 11.5886 0.891429 0 0 0 1 -6.99881 0 4
183 1 8.91945 8.87521 3.59288 6.52533 -0.635313 7.4886 1 -7.3272 0.0616592 4
184 1 12.4991 8.89138 3.62522 0.70354 6.74806 -2.35886 1 -7.32505 0.0321144 4
185 1 8.9451 12.4882 3.56828 -5.63821 4.61554 -1.45376 1 -7.24284 0.0343617 4
186 1 10.6867 10.6822 3.55968 2.54104 -10.1297 1.388 1 -7.33359 0.0690855 4
187 1 12.4278 12.4844 3.54333 -0.65817 1.9729 -0.221301 1 -7.41892 0.0027228 4
188 1 13.3714 9.80572 0.891429 0 0 0 1 -7.05558 0 4
189 1 14.287 8.96439 1.75888 0.672997 5.79954 -3.0396 1 -7.33142 0.0269677 4
190 1 16.0457 8.91429 0 0 0 0 1 -3.31148 0 2
191 1 15.1687 9.80577 2.65196 -3.68317 6.87121 -1.54361 1 -7.31347 0.0393137 4
192 1 16.9371 9.80572 0.891429 0 0 0 1 -6.99404 0 4
193 1 13.3358 11.5906 2.67029 -0.36947 -6.52357 0.948624 1 -7.33251 0.0271336 4
194 1 14.2629 10.6971 0 0 0 0 1 -3.33107 0 2
195 1 14.246 12.4519 1.75578 -4.57455 -2.35648 -9.23835 1 -7.37584 0.0696038 4
196 1 16.0869 10.7554 1.77152 -5.5796 0.720846 -2.89725 1 -7.33383 0.0249254 4
197 1 16.0457 12.48 0 0 0 0 1 -3.31717 0 2
198 1 15.1543 11.5886 0.891429 0 0 0 1 -7.02605 0 4
199 1 16.966 11.627 2.6301 -2.39287 -0.753437 1.23465 1 -7.36731 0.00486602 4
200 1 16.0618 8.90628 3.51339 0.99831 -0.494958 2.85703 1 -7.36238 0.00585344 4
201 1 14.2375 10.6726 3.53382 8.81023 -6.91631 0.526963 1 -7.30816 0.0782595 4
202 1 16.0747 12.4501 3.56852 -0.366286 -2.63829 -4.65373 1 -7.36755 0.0178959 4
203 1 21.3676 10.6884 3.58504 0.651069 -0.365751 -4.81734 1 -7.2765 0.0147916 4
206 1 17.8312 8.90721 1.75994 5.54874 3.34419 -9.65843 1 -7.36805 0.0841878 4
207 1 19.6114 8.91429 0 0 0 0 1 -3.33857 0 2
208 1 18.6757 9.78468 2.67047 -5.71053 -0.334785 0.658098 1 -7.3262 0.0206367 4
209 1 20.5029 9.80572 0.891429 0 0 0 1 -7.00531 0 4
210 1 17.8286 10.6971 0 0 0 0 1 -3.31037 0 2
211 1 17.845 12.5091 1.76709 7.2367 7.72469 -6.80478 1 -7.396 0.0985585 4
212 1 19.6185 10.6841 1.76059 -0.140295 -0.263672 -11.9852 1 -7.32448 0.0894646 4
213 1 19.6114 12.48 0 0 0 0 1 -3.3317 0 2
214 1 18.72 11.5886 0.891429 0 0 0 1 -7.00035 0 4
215 1 20.4937 11.5938 2.67836 -3.53612 -2.02427 -8.68316 1 -7.29799 0.0572627 4
216 1 19.5651 8.88092 3.55288 8.92278 3.2175 -6.57927 1 -7.32238 0.0829415 4
217 1 17.8669 10.7076 3.54474 -9.10252 5.78758 -3.44147 1 -7.34114 0.0797923 4
218 1 19.5861 12.4992 3.56579 4.94773 -0.655675 1.11669 1 -7.34438 0.0162807 4
219 1 0.889267 13.3896 2.66332 -3.74432 0.0343202 -3.7489 1 -7.32881 0.0174749 4
220 1 2.67429 13.3714 0.891429 0 0 0 1 -6.99531 0 4
221 1 0 14.2629 0 0 0 0 1 -3.30598 0 2
222 1 1.78312 14.256 1.76239 4.47322 -4.05146 -1.2974 1 -7.36108 0.0237189 4
223 1 1.78286 16.0457 0 0 0 0 1 -3.31029 0 2
224 1 0.891429 15.1543 0.891429 0 0 0 1 -7.05263 0 4
225 1 0.873463 16.9031 2.65725 -3.19365 -1.01991 4.98698 1 -7.30867 0.0224756 4
226 1 2.67631 15.1394 2.68367 -1.92014 0.424522 4.11403 1 -7.32599 0.0129418 4
227 1 2.67429 16.9371 0.891429 0 0 0 1 -6.9997 0 4
228 1 3.56572 14.2629 0 0 0 0 1 -3.33099 0 2
229 1 3.54003 16.0189 1.75366 0.499894 -0.609343 -5.95056 1 -7.34664 0.0224262 4
230 1 1.78619 15.9997 3.55931 3.50066 2.68272 -3.59617 1 -7.34143 0.0201567 4
231 1 3.57973 14.2444 3.61782 -5.50592 4.12184 -2.24531 1 -7.34512 0.0325816 4
233 1 0.00165081 16.0259 1.74474 5.61077 3.34795 0.886365 1 -7.35224 0.0270601 4
232 1 0.00609764 14.2737 3.5513 2.65896 4.59013 -2.88792 1 -7.36524 0.0227058 4
234 1 4.43484 13.384 2.70128 1.99113 11.1157 2.72601 1 -7.33349 0.0839986 4
235 1 6.24 13.3714 0.891429 0 0 0 1 -6.99253 0 4
236 1 7.96339 13.3805 2.70759 1.90913 5.66092 3.01987 1 -7.28785 0.0278912 4
237 1 5.35836 14.3075 1.79647 10.396 -2.64304 -7.49675 1 -7.28535 0.106599 4
238 1 5.34857 16.0457 0 0 0 0 1 -3.3487 0 2
239 1 4.45714 15.1543 0.891429 0 0 0 1 -7.02786 0 4
240 1 4.46335 16.9564 2.63901 1.22708 -0.512849 -2.87809 1 -7.33662 0.00625671 4
241 1 6.28847 15.1647 2.73326 -2.82277 -0.0996544 4.09728 1 -7.30757 0.0154148 4
242 1 6.24 16.9371 0.891429 0 0 0 1 -7.04621 0 4
243 1 7.13143 14.2629 0 0 0 0 1 -3.32877 0 2
244 1 7.16505 16.0617 1.78069 -3.33229 1.47376 -4.0419 1 -7.32407 0.018432 4
245 1 8.02286 15.1543 0.891429 0 0 0 1 -7.01613 0 4
246 1 8.01337 16.9408 2.68661 8.18121 0.603663 -2.17203 1 -7.38293 0.0448236 4
247 1 5.37822 16.0696 3.55335 7.0084 8.1214 -1.87619 1 -7.31835 0.0738166 4
248 1 7.0846 14.2625 3.60774 5.98135 0.307606 4.29786 1 -7.37895 0.0338243 4
249 1 9.80572 13.3714 0.891429 0 0 0 1 -6.9988 0 4
250 1 11.5648 13.359 2.7048 3.77962 -4.27365 3.90973 1 -7.31524 0.0297741 4
251 1 8.86996 14.2194 1.77561 0.218378 6.83107 -2.14582 1 -7.31982 0.0319403 4
252 1 8.91429 16.0457 0 0 0 0 1 -3.34092 0 2
253 1 9.72713 15.123 2.69194 0.872641 1.87438 8.96414 1 -7.29048 0.0526763 4
254 1 9.80572 16.9371 0.891429 0 0 0 1 -7.02867 0 4
255 1 10.6971 14.2629 0 0 0 0 1 -3.3602 0 2
256 1 10.6919 16.06 1.78142 -9.40072 -0.691429 -2.14305 1 -7.25245 0.0581622 4
257 1 12.4695 14.3012 1.77241 -0.125521 1.38086 5.47583 1 -7.28145 0.0198599 4
258 1 12.48 16.0457 0 0 0 0 1 -3.32208 0 2
259 1 11.5886 15.1543 0.891429 0 0 0 1 -7.03105 0 4
260 1 11.6023 16.9498 2.68441 -9.0585 -5.6004 -0.743447 1 -7.34779 0.0709402 4
261 1 8.85768 16.0419 3.54907 -8.48984 -1.85388 -8.52163 1 -7.36114 0.0922015 4
262 1 10.6249 14.2624 3.57424 -3.54078 -6.26307 3.56262 1 -7.30348 0.0401188 4
263 1 12.4551 16.0464 3.53419 5.72172 2.57452 -5.18577 1 -7.31702 0.041241 4
264 1 13.3714 13.3714 0.891429 0 0 0 1 -6.97991 0 4
265 1 15.1295 13.3411 2.66233 -1.73178 8.88114 3.35628 1 -7.30962 0.0579717 4
266 1 16.9371 13.3714 0.891429 0 0 0 1 -6.99814 0 4
267 1 13.4226 15.1701 2.64301 3.06059 -10.5719 -3.87865 1 -7.30104 0.0847602 4
268 1 13.3714 16.9371 0.891429 0 0 0 1 -7.03968 0 4
269 1 14.2629 14.2629 0 0 0 0 1 -3.31818 0 2
270 1 14.2694 16.0294 1.744 -6.58993 -0.471916 4.91282 1 -7.38703 0.0421916 4
271 1 16.0038 14.2532 1.79827 -1.56491 -2.6405 0.177502 1 -7.33779 0.0058836 4
272 1 16.0457 16.0457 0 0 0 0 1 -3.3518 0 2
273 1 15.1543 15.1543 0.891429 0 0 0 1 -7.01526 0 4
274 1 15.1555 16.9295 2.66414 -0.553031 -2.72392 13.0418 1 -7.29257 0.110676 4
275 1 16.9002 15.1892 2.6799 -3.51611 3.58265 2.66064 1 -7.3029 0.0200903 4
276 1 16.9371 16.9371 0.891429 0 0 0 1 -7.02614 0 4
277 1 14.2489 14.2338 3.54756 5.87339 -4.369 -8.83991 1 -7.36199 0.0819915 4
278 1 16.0096 16.0845 3.59722 -2.61817 -3.38052 -5.83912 1 -7.34614 0.0326015 4
279 1 18.7293 13.3826 2.64125 4.40769 3.68119 -5.75826 1 -7.35424 0.0411651 4
280 1 20.5029 13.3714 0.891429 0 0 0 1 -7.03632 0 4
281 1 17.8286 14.2629 0 0 0 0 1 -3.3275 0 2
282 1 17.7939 16.059 1.77846 6.4824 6.64754 3.22445 1 -7.35487 0.0601316 4
283 1 19.6443 14.2584 1.77305 6.72966 2.92353 -1.55211 1 -7.3403 0.0350079 4
284 1 19.6114 16.0457 0 0 0 0 1 -3.31003 0 2
285 1 18.72 15.1543 0.891429 0 0 0 1 -6.98823 0 4
286 1 18.6842 16.9538 2.69002 -2.24229 11.3249 -2.78245 1 -7.32271 0.0877772 4
287 1 20.4977 15.1905 2.68654 11.7675 10.7206 -1.6169 1 -7.37189 0.159353 4
288 1 20.5029 16.9371 0.891429 0 0 0 1 -7.06197 0 4
289 1 17.8155 14.2932 3.56208 -1.36818 -1.08699 -0.582543 1 -7.34866 0.00211179 4
290 1 19.6072 16.0324 3.55805 -3.08517 4.32536 -1.77706 1 -7.34593 0.0195349 4
291 1 3.56767 21.3803 3.57632 10.157 -4.05708 11.5905 1 -7.32361 0.158074 4
293 1 0 17.8286 0 0 0 0 1 -3.33418 0 2
294 1 1.75191 17.8243 1.77787 -1.0328 5.16645 -4.70753 1 -7.31978 0.0310713 4
295 1 1.78286 19.6114 0 0 0 0 1 -3.33457 0 2
296 1 0.891429 18.72 0.891429 0 0 0 1 -7.02136 0 4
297 1 0.883703 20.4807 2.6706 0.742449 1.25431 4.38287 1 -7.3036 0.0132789 4
298 1 2.67102 18.7272 2.68364 4.22593 3.04325 -4.33704 1 -7.30799 0.0285879 4
299 1 2.67429 20.5029 0.891429 0 0 0 1 -7.0355 0 4
300 1 3.56572 17.8286 0 0 0 0 1 -3.33344 0 2
301 1 3.51312 19.6198 1.76958 0.232294 7.76294 9.44302 1 -7.34299 0.0930451 4
302 1 1.77095 19.6111 3.60603 3.14853 2.64576 -0.162433 1 -7.34258 0.0105437 4
303 1 3.58752 17.8022 3.53012 -8.77495 1.11464 2.87588 1 -7.36786 0.0538479 4
304 1 -0.00472679 17.8551 3.54275 -7.82906 -2.42996 -2.86198 1 -7.32408 0.0469246 4
350 1 0.00919331 21.3953 3.61482 -6.40964 1.77025 15.1828 1 -7.34142 0.171002 4
307 1 5.3812 17.8226 1.78787 0.105674 -5.2563 -2.19144 1 -7.38385 0.0201929 4
308 1 5.34857 19.6114 0 0 0 0 1 -3.3385 0 2
309 1 4.45714 18.72 0.891429 0 0 0 1 -6.95828 0 4
310 1 4.43819 20.5161 2.67383 -7.4358 6.34293 0.67466 1 -7.30105 0.0597398 4
311 1 6.20545 18.7313 2.6855 -2.59345 10.1636 5.62615 1 -7.34494 0.0881848 4
312 1 6.24 20.5029 0.891429 0 0 0 1 -6.99811 0 4
313 1 7.13143 17.8286 0 0 0 0 1 -3.32534 0 2
314 1 7.14422 19.634 1.78281 -0.55884 1.1283 -5.06403 1 -7.31034 0.0169485 4
315 1 8.02286 18.72 0.891429 0 0 0 1 -7.01337 0 4
316 1 8.00881 20.5605 2.70973 6.65411 4.34548 0.571759 1 -7.38635 0.0395161 4
317 1 5.3341 19.6209 3.58327 -1.96075 5.51115 2.68311 1 -7.37325 0.0257787 4
318 1 7.13659 17.8642 3.57163 -2.40324 -5.79674 -0.888191 1 -7.31077 0.0250008 4
319 1 10.6982 21.3893 3.57201 -1.51576 -0.860512 -3.87821 1 -7.35734 0.0112525 4
322 1 8.91303 17.8206 1.78173 -9.21787 -2.19103 -3.9482 1 -7.31773 0.0655776 4
323 1 8.91429 19.6114 0 0 0 0 1 -3.32873 0 2
324 1 9.79212 18.7689 2.66167 5.79815 -0.0226087 -3.6683 1 -7.34771 0.029301 4
325 1 9.80572 20.5029 0.891429 0 0 0 1 -6.98403 0 4
326 1 10.6971 17.8286 0 0 0 0 1 -3.32595 0 2
327 1 10.6672 19.622 1.75762 -1.35799 -0.101198 -3.15566 1 -7.41469 0.00735245 4
328 1 12.496 17.8215 1.77561 -2.54215 4.19784 -6.13694 1 -7.37971 0.0384325 4
329 1 12.48 19.6114 0 0 0 0 1 -3.34115 0 2
330 1 11.5886 18.72 0.891429 0 0 0 1 -7.02608 0 4
331 1 11.5374 20.5159 2.66935 3.3565 0.567278 0.81088 1 -7.25887 0.00762187 4
332 1 8.90795 19.6458 3.58502 -3.68879 0.835386 1.97028 1 -7.3917 0.0113201 4
333 1 10.6234 17.8235 3.55194 6.05436 3.09443 0.836942 1 -7.30761 0.0292113 4
334 1 12.4988 19.6282 3.56386 3.13921 -8.93105 -7.09654 1 -7.27196 0.0871267 4
335 1 16.0508 21.3831 1.76161 0.0290455 0.103287 2.72137 1 -7.31249 0.00461675 4
336 1 14.2851 21.3719 3.59022 5.24793 7.82594 -5.67237 1 -7.41951 0.0752899 4
337 1 13.4046 18.7362 2.67614 -1.58721 7.35204 0.487501 1 -7.32154 0.0353596 4
338 1 13.3714 20.5029 0.891429 0 0 0 1 -7.00995 0 4
339 1 14.2629 17.8286 0 0 0 0 1 -3.33593 0 2
340 1 14.2768 19.6286 1.76578 -3.73433 -2.25892 -3.88411 1 -7.36599 0.021246 4
341 1 16.0888 17.8329 1.76297 -4.58991 -1.99561 0.829426 1 -7.33502 0.0160198 4
342 1 16.0457 19.6114 0 0 0 0 1 -3.31746 0 2
343 1 15.1543 18.72 0.891429 0 0 0 1 -7.01387 0 4
344 1 15.1583 20.5379 2.69892 -2.96839 0.0028547 5.77078 1 -7.31453 0.0262124 4
345 1 16.9798 18.745 2.68897 -3.6429 3.43199 1.23873 1 -7.34615 0.0165464 4
346 1 16.9371 20.5029 0.891429 0 0 0 1 -7.04375 0 4
347 1 14.2624 17.8236 3.57739 2.7609 3.67709 -3.18377 1 -7.30688 0.0194695 4
348 1 16.1018 19.6541 3.58449 3.58191 -1.04717 5.22628 1 -7.36893 0.0256693 4
305 1 21.3771 19.633 1.77158 -7.37888 5.10766 -7.25504 1 -7.36989 0.0828894 4
351 1 17.8286 17.8286 0 0 0 0 1 -3.32322 0 2
352 1 17.8201 19.632 1.81664 -4.12891 -1.25852 -2.86129 1 -7.30614 0.0166927 4
353 1 19.6105 17.7805 1.77954 -1.40185 5.43227 2.60775 1 -7.31901 0.0238234 4
354 1 19.6114 19.6114 0 0 0 0 1 -3.34432 0 2
355 1 18.72 18.72 0.891429 0 0 0 1 -6.93427 0 4
356 1 18.737 20.4942 2.72288 -0.325816 -1.97501 1.62007 1 -7.29155 0.00412758 4
357 1 20.4446 18.7408 2.66617 1.9895 1.03782 2.30496 1 -7.30843 0.00644088 4
358 1 20.5029 20.5029 0.891429 0 0 0 1 -7.03186 0 4
359 1 17.8337 17.873 3.52919 0.491288 -1.00731 -0.780979 1 -7.37085 0.00116143 4
360 1 19.5784 19.6194 3.56026 -5.40052 1.61302 -4.96263 1 -7.30768 0.0351018 4
361 1 0.89526 0.896464 4.50035 0.0794257 -1.70611 5.21582 1 -7.36692 0.0187487 4
362 1 0.958205 2.67396 6.29329 9.5224 -5.90784 2.25584 1 -7.34239 0.0813309 4
363 1 2.69313 0.885676 6.24533 2.19951 5.33568 6.05005 1 -7.2757 0.0435141 4
364 1 2.6784 2.68792 4.48727 -6.47462 -0.721858 2.14278 1 -7.3749 0.0292747 4
365 1 3.55897 1.83413 5.30734 6.3045 -15.0536 -2.33619 1 -7.33226 0.169186 4
366 1 1.80463 3.57438 5.36453 4.39702 -13.0835 6.93107 1 -7.32518 0.148481 4
367 1 1.80136 1.79182 7.16433 -1.80809 -0.73631 3.73406 1 -7.28231 0.0110509 4
368 1 0.920992 0.867506 8.07225 -7.25636 1.32152 -0.978214 1 -7.32156 0.0344563 4
369 1 2.6729 2.74767 8.03173 11.3416 4.04252 4.40365 1 -7.31666 0.102305 4
370 1 3.6041 3.59121 7.10339 7.0287 -1.45703 0.579357 1 -7.39117 0.0322798 4
411 1 0.0435808 1.798 5.42522 -1.69592 7.26305 0.800526 1 -7.31092 0.0350232 4
371 1 0.0177384 3.56864 7.16457 0.515514 4.35041 -3.93434 1 -7.26315 0.02158 4
372 1 4.44852 0.931336 4.49444 1.57108 6.59552 -2.85693 1 -7.24549 0.0336927 4
373 1 4.43586 2.69731 6.24625 0.743425 -3.86005 -1.88918 1 -7.37962 0.0118396 4
374 1 6.27268 0.922167 6.2668 7.6121 -4.96243 0.0442068 1 -7.34766 0.0513948 4
375 1 6.23842 2.70444 4.47173 -3.72154 -5.18779 0.331493 1 -7.28484 0.0254404 4
376 1 7.16181 1.7841 5.35836 -4.10094 -4.12647 -5.99115 1 -7.36651 0.0434076 4
377 1 7.97955 0.884207 4.44903 5.51007 -2.50728 -8.58586 1 -7.30123 0.0686937 4
378 1 8.04468 2.67873 6.23904 -3.71932 -0.303871 3.51467 1 -7.33412 0.0163565 4
379 1 5.36122 3.57716 5.35896 1.47061 3.88778 -1.07949 1 -7.35456 0.0114793 4
380 1 5.3486 1.83357 7.13967 -2.37069 -4.32861 5.00995 1 -7.324 0.0307831 4
381 1 4.45936 0.90984 8.03279 0.532929 -1.89609 -2.78201 1 -7.36412 0.00723181 4
382 1 6.30013 2.70015 8.0271 -0.205525 10.986 -5.23135 1 -7.33488 0.092182 4
383 1 8.0888 0.881531 8.04798 10.1605 2.33442 3.63497 1 -7.36062 0.0758723 4
384 1 7.18725 3.55718 7.1577 -8.57396 -3.27301 0.368689 1 -7.35135 0.0525087 4
665 1 7.14548 0.0178517 7.17316 5.36056 -2.55905 -3.84282 1 -7.3196 0.0311534 4
385 1 5.35705 0.0438832 5.43473 -2.28675 -1.86706 -0.321119 1 -7.35615 0.00548871 4
386 1 9.81071 0.870512 6.28376 -0.795354 0.830498 11.3333 1 -7.37674 0.0807704 4
387 1 9.85327 2.69622 4.49357 -2.65336 -0.122915 -1.29845 1 -7.37525 0.00544088 4
388 1 10.7101 1.79112 5.39866 -6.40335 -2.27759 2.69203 1 -7.33117 0.0332608 4
389 1 11.5928 0.899662 4.483 -2.30984 -3.31323 10.2532 1 -7.34291 0.0755884 4
390 1 11.593 2.64862 6.2666 -0.680324 -0.880894 0.676826 1 -7.29548 0.0010562 4
391 1 8.9631 3.60128 5.37411 3.63143 5.04199 -9.2077 1 -7.35343 0.0768016 4
392 1 12.4222 3.57259 5.36793 4.44783 1.27847 -1.2455 1 -7.31815 0.0142965 4
393 1 8.94288 1.75704 7.18086 5.07087 -0.18091 3.7377 1 -7.32171 0.0247208 4
394 1 9.80661 2.66847 8.02633 5.26423 5.5391 6.75146 1 -7.24861 0.0647174 4
395 1 12.4656 1.71891 7.18497 0.291456 0.119043 -0.913634 1 -7.33177 0.00058125 4
396 1 11.5854 0.866448 8.07171 -0.556773 4.3813 -6.71243 1 -7.3474 0.0401854 4
397 1 10.6888 3.59804 7.12647 -2.19616 -1.55418 -2.85441 1 -7.31606 0.0095768 4
680 1 12.4852 0.00338044 5.39807 -1.63119 -3.10788 -3.36178 1 -7.35792 0.0147025 4
679 1 8.92366 0.0351029 5.35677 0.406814 2.5703 -4.9882 1 -7.3394 0.0197023 4
398 1 13.3704 0.857164 6.27467 -0.522114 -5.65871 -3.99173 1 -7.36524 0.030018 4
399 1 13.3748 2.66912 4.5019 -3.58471 5.56386 -1.093 1 -7.25672 0.02801 4
400 1 14.2552 1.78162 5.41908 -0.493481 -3.13561 1.26607 1 -7.36256 0.00726903 4
401 1 15.16 0.867105 4.48595 6.33014 1.4914 1.20985 1 -7.30058 0.0272365 4
402 1 15.1526 2.68591 6.26205 -10.6307 -0.129408 0.781215 1 -7.37947 0.070732 4
403 1 16.9432 0.961054 6.26883 3.84583 -4.99365 4.39984 1 -7.30527 0.0367764 4
404 1 16.9394 2.66711 4.51932 -1.32996 9.94689 -0.927134 1 -7.28566 0.0632192 4
405 1 16.0368 3.56117 5.40032 -2.39771 -3.04058 5.03627 1 -7.34182 0.02512 4
406 1 13.3457 2.67858 8.01456 -0.834841 -3.34756 5.25373 1 -7.29539 0.0245889 4
407 1 16.0164 1.86217 7.17592 1.30385 -0.780861 3.8094 1 -7.30915 0.01047 4
408 1 15.1347 0.903636 8.04754 -1.34837 -1.59892 -4.4081 1 -7.32403 0.0148175 4
409 1 16.9277 2.63608 8.08208 8.93181 1.527 4.82427 1 -7.33005 0.0655929 4
410 1 14.1924 3.58384 7.12127 10.7987 1.24486 -1.78443 1 -7.35692 0.075529 4
694 1 16.0519 0.0165697 5.37557 5.13229 -0.853462 6.67454 1 -7.33064 0.0445771 4
412 1 17.857 1.79608 5.43897 2.05467 3.12699 -0.8448 1 -7.32326 0.00915802 4
413 1 18.7162 0.878366 4.52147 -0.923652 1.7579 -6.45301 1 -7.40904 0.0283731 4
414 1 18.7483 2.73258 6.26828 0.647964 1.62829 -1.99029 1 -7.36479 0.00437718 4
415 1 20.5207 0.875101 6.27625 6.17705 -0.937501 4.2768 1 -7.28021 0.0356812 4
416 1 20.4903 2.66613 4.52313 -2.3327 1.35976 3.02179 1 -7.27578 0.0102213 4
417 1 19.6264 3.60242 5.35838 -2.32107 0.547697 -5.19887 1 -7.40457 0.020363 4
418 1 19.6225 1.82723 7.19807 1.02541 -2.60792 3.18181 1 -7.26163 0.0111892 4
419 1 18.7093 0.869647 8.07278 2.87543 -0.707005 4.47082 1 -7.26421 0.0178986 4
420 1 20.5308 2.68352 8.08119 3.48845 4.91083 2.56613 1 -7.31272 0.0266837 4
421 1 17.8103 3.58819 7.16421 0.589693 -3.01043 5.40382 1 -7.27224 0.0240329 4
709 1 17.7697 0.0324366 7.13543 -14.3019 6.86576 0.378781 1 -7.31296 0.156744 4
422 1 19.5869 0.029841 5.3836 9.62621 -1.23232 1.83425 1 -7.30545 0.0607158 4
423 1 0.934849 4.49828 4.45097 2.26783 4.49496 -0.0452061 1 -7.3683 0.0157783 4
424 1 0.893817 6.27649 6.28032 -3.21985 2.76435 7.64475 1 -7.35407 0.0475853 4
425 1 2.69725 4.49296 6.26201 8.94029 6.35808 -3.09515 1 -7.31728 0.0808743 4
426 1 2.66953 6.30208 4.50861 -3.50096 -3.13953 9.52097 1 -7.39668 0.0701861 4
427 1 3.55326 5.36042 5.34699 0.153463 -1.2628 3.63419 1 -7.28955 0.00922781 4
428 1 1.79501 7.15209 5.35339 -1.75284 -8.25657 -6.73281 1 -7.34231 0.0725588 4
429 1 0.899467 8.06534 4.50033 2.59834 -0.0977042 -4.68068 1 -7.33817 0.0178448 4
430 1 2.70067 8.0417 6.22643 5.89658 9.65204 3.07106 1 -7.367 0.0854983 4
431 1 1.81282 5.37766 7.16102 -2.67281 1.81551 5.18999 1 -7.36847 0.0232638 4