ITEM: TIMESTEP
49124975
ITEM: NUMBER OF ATOMS
3060
ITEM: BOX BOUNDS pp pp mm
0.0000000000000000e+00 2.1394294200000001e+01
0.0000000000000000e+00 2.1394294200000001e+01
-5.3491084073550004e-03 5.3485735499999997e+01
ITEM: ATOMS id type x y z vx vy vz c_clusts c_atom_pe c_atom_ke c_atom_coord
1 1 0 0 0 0 0 0 1 -3.32743 0 2
2 1 1.78286 1.78286 0 0 0 0 1 -3.32975 0 2
3 1 0.891429 0.891429 0.891429 0 0 0 1 -7.0146 0 4
4 1 0.889378 2.65389 2.70052 1.26689 -3.70933 -1.27612 1 -7.32937 0.0105767 4
5 1 2.65091 0.861072 2.70833 3.68185 3.3699 9.22068 1 -7.30155 0.0684252 4
6 1 2.67429 2.67429 0.891429 0 0 0 1 -7.01503 0 4
7 1 3.56572 0 0 0 0 0 1 -3.33616 0 2
8 1 3.54758 1.76348 1.75873 9.26828 7.8227 -2.62248 1 -7.34036 0.0958368 4
9 1 0 3.56572 0 0 0 0 1 -3.35396 0 2
10 1 1.77264 3.55468 1.80806 -0.198566 7.63902 -6.25752 1 -7.35867 0.0607181 4
11 1 3.56572 3.56572 0 0 0 0 1 -3.34579 0 2
12 1 1.78952 1.75519 3.6464 -3.60761 -1.46841 3.8073 1 -7.33577 0.0184653 4
13 1 3.52839 3.61506 3.57527 -4.98609 -4.65687 -0.00489255 1 -7.30516 0.0289724 4
292 1 1.79587 0.00968006 1.77892 5.33631 -0.933388 -3.27153 1 -7.3347 0.0249284 4
56 1 0.0560301 3.56166 3.59906 8.91665 -1.02395 1.68316 1 -7.25527 0.0519029 4
14 1 5.34857 1.78286 0 0 0 0 1 -3.32305 0 2
15 1 4.45714 0.891429 0.891429 0 0 0 1 -7.04262 0 4
16 1 4.42411 2.65029 2.67286 6.74731 7.15605 -5.71384 1 -7.30266 0.0805315 4
17 1 6.19567 0.899065 2.70477 -0.294529 2.75469 -3.09709 1 -7.32932 0.0107475 4
18 1 6.24 2.67429 0.891429 0 0 0 1 -6.98391 0 4
19 1 7.13143 0 0 0 0 0 1 -3.3266 0 2
20 1 7.15501 1.7666 1.74996 -4.38882 -1.50078 2.95033 1 -7.25055 0.0188088 4
21 1 8.02286 0.891429 0.891429 0 0 0 1 -7.0506 0 4
22 1 8.03676 2.70997 2.68587 5.8715 2.683 -5.4515 1 -7.26057 0.0444361 4
23 1 5.33189 3.5468 1.79938 4.18462 3.83312 -2.98489 1 -7.34223 0.02559 4
24 1 7.13143 3.56572 0 0 0 0 1 -3.34322 0 2
25 1 5.36273 1.83027 3.51591 4.3935 5.0739 -2.77433 1 -7.32742 0.0328294 4
26 1 7.1948 3.60423 3.61164 -1.50306 -5.8716 1.71897 1 -7.26577 0.024704 4
306 1 7.1045 0.00123118 3.55234 5.28821 -8.17961 0.411743 1 -7.36193 0.0591558 4
27 1 5.3394 0.042831 1.76115 -3.96884 -7.7992 -0.64002 1 -7.33606 0.0479199 4
28 1 8.91429 1.78286 0 0 0 0 1 -3.34858 0 2
29 1 9.8441 0.91939 2.64998 3.9375 -1.42764 -6.54137 1 -7.32555 0.037552 4
30 1 9.80572 2.67429 0.891429 0 0 0 1 -7.04018 0 4
31 1 10.6971 0 0 0 0 0 1 -3.34731 0 2
32 1 10.7058 1.79989 1.79512 -3.44937 3.65029 -2.87301 1 -7.35789 0.0208369 4
33 1 12.48 1.78286 0 0 0 0 1 -3.30849 0 2
34 1 11.5886 0.891429 0.891429 0 0 0 1 -6.99537 0 4
35 1 11.632 2.68647 2.67842 6.53918 -1.29994 5.09503 1 -7.39674 0.0438251 4
36 1 8.95765 3.57336 1.78518 -0.718897 -1.33647 -0.842567 1 -7.32302 0.0018753 4
37 1 10.6971 3.56572 0 0 0 0 1 -3.3144 0 2
38 1 12.4895 3.56039 1.77609 -1.39587 -4.64007 -8.11635 1 -7.39725 0.0556162 4
39 1 8.93897 1.82611 3.57378 -1.00773 -3.38123 0.328212 1 -7.2279 0.00781517 4
40 1 12.4934 1.79158 3.58985 6.81479 -9.93669 1.9811 1 -7.33781 0.0928062 4
41 1 10.7286 3.55417 3.57354 4.75906 2.05632 -2.6287 1 -7.31822 0.02103 4
321 1 12.5045 0.0361654 1.78074 7.4243 -3.94702 -3.83866 1 -7.27888 0.0531766 4
320 1 8.9057 0.0408494 1.80417 5.65574 5.32305 -7.28354 1 -7.35028 0.0705658 4
42 1 13.4244 0.866681 2.70147 -1.92119 7.94626 4.18118 1 -7.35009 0.0524806 4
43 1 13.3714 2.67429 0.891429 0 0 0 1 -7.02552 0 4
44 1 14.2629 0 0 0 0 0 1 -3.30157 0 2
45 1 14.2528 1.73983 1.78034 3.10239 2.31754 0.248104 1 -7.31189 0.0093721 4
46 1 16.0457 1.78286 0 0 0 0 1 -3.34198 0 2
47 1 15.1543 0.891429 0.891429 0 0 0 1 -7.0308 0 4
48 1 15.1873 2.63129 2.71732 -3.3467 4.81036 -2.29641 1 -7.30238 0.0246565 4
49 1 16.9732 0.845778 2.70219 7.58177 -0.183457 -2.16396 1 -7.31747 0.0387146 4
50 1 16.9371 2.67429 0.891429 0 0 0 1 -7.0249 0 4
51 1 14.2629 3.56572 0 0 0 0 1 -3.33466 0 2
52 1 16.0342 3.56459 1.76982 -6.86268 5.46776 -1.92617 1 -7.34401 0.0502317 4
53 1 16.0548 1.75681 3.59083 9.80027 3.64308 -3.88028 1 -7.36491 0.0774135 4
54 1 14.3258 3.57254 3.58998 -4.25065 -1.35598 0.670131 1 -7.34651 0.01267 4
55 1 21.3812 1.7581 1.81966 -0.142245 1.46433 -2.42076 1 -7.35235 0.00499471 4
57 1 17.8286 0 0 0 0 0 1 -3.34785 0 2
58 1 17.8537 1.78544 1.78587 -1.05231 -0.301946 -1.68815 1 -7.32623 0.00251982 4
59 1 19.6114 1.78286 0 0 0 0 1 -3.33153 0 2
60 1 18.72 0.891429 0.891429 0 0 0 1 -7.0287 0 4
61 1 18.7807 2.67254 2.69978 -0.774823 -2.96555 -5.941 1 -7.33387 0.0278164 4
62 1 20.515 0.895909 2.71643 5.3121 -0.0635308 2.48936 1 -7.34455 0.0214235 4
63 1 20.5029 2.67429 0.891429 0 0 0 1 -7.00125 0 4
64 1 17.8286 3.56572 0 0 0 0 1 -3.3304 0 2
65 1 19.6564 3.55485 1.80681 -7.33856 1.53753 -0.202277 1 -7.37052 0.0350173 4
66 1 19.6061 1.75764 3.62641 -0.487735 -1.19431 -4.17988 1 -7.35912 0.0119106 4
67 1 17.872 3.56126 3.60636 -10.5311 1.38598 -3.75358 1 -7.27249 0.0789944 4
68 1 19.6238 0.0193087 1.76133 -2.20862 2.27498 -2.1201 1 -7.30985 0.00905528 4
349 1 17.8461 -0.0130909 3.5954 -0.323671 -10.6735 2.0556 1 -7.39439 0.0736043 4
69 1 1.78286 5.34857 0 0 0 0 1 -3.35464 0 2
70 1 0.891429 4.45714 0.891429 0 0 0 1 -6.96423 0 4
71 1 0.890961 6.27333 2.7241 3.96348 8.51407 10.8082 1 -7.30601 0.127607 4
72 1 2.68901 4.47906 2.69102 3.36799 9.63362 0.336965 1 -7.36333 0.0648963 4
73 1 2.67429 6.24 0.891429 0 0 0 1 -7.02694 0 4
74 1 3.57931 5.37304 1.78028 11.5225 6.17435 -3.45122 1 -7.38948 0.113781 4
75 1 0 7.13143 0 0 0 0 1 -3.35556 0 2
76 1 1.80324 7.17015 1.77843 -3.52414 -4.75089 -1.60127 1 -7.31622 0.023375 4
77 1 0.891429 8.02286 0.891429 0 0 0 1 -7.03008 0 4
78 1 2.71248 8.06821 2.66745 0.223188 2.45793 -1.31444 1 -7.31374 0.00486675 4
79 1 3.56572 7.13143 0 0 0 0 1 -3.31096 0 2
80 1 1.83605 5.38189 3.6214 -2.59095 5.41655 -2.80896 1 -7.31509 0.0273509 4
81 1 3.59865 7.14416 3.6046 -5.40547 1.28136 7.00506 1 -7.27205 0.0497517 4
128 1 0.00749707 5.37812 1.83479 0.50553 6.90252 1.28837 1 -7.31989 0.0308476 4
83 1 5.34857 5.34857 0 0 0 0 1 -3.33802 0 2
84 1 4.45714 4.45714 0.891429 0 0 0 1 -6.99077 0 4
85 1 4.47746 6.22903 2.6472 0.433016 -4.22675 2.72534 1 -7.34156 0.0158597 4
86 1 6.23465 4.4545 2.65178 -6.7127 -5.07674 2.1777 1 -7.25986 0.0470405 4
87 1 6.24 6.24 0.891429 0 0 0 1 -7.03384 0 4
88 1 7.13925 5.34427 1.7859 -3.92331 -1.57075 -4.42428 1 -7.33749 0.0232998 4
89 1 8.02286 4.45714 0.891429 0 0 0 1 -7.00459 0 4
90 1 8.01237 6.17972 2.76483 -2.69884 -4.7569 6.89331 1 -7.31941 0.0481942 4
91 1 5.36468 7.13545 1.77641 -4.99328 -2.2943 -0.750284 1 -7.38265 0.0191456 4
92 1 4.45714 8.02286 0.891429 0 0 0 1 -7.01641 0 4
93 1 6.19502 7.99746 2.66971 -0.0933646 8.5903 -4.86114 1 -7.33733 0.0606447 4
94 1 7.13143 7.13143 0 0 0 0 1 -3.31899 0 2
95 1 8.02286 8.02286 0.891429 0 0 0 1 -7.00832 0 4
96 1 5.31677 5.35551 3.53292 -2.08014 0.149439 -2.37198 1 -7.31457 0.00620908 4
97 1 7.14207 7.11779 3.55152 5.73791 -6.1732 -1.39259 1 -7.31093 0.0454193 4
98 1 8.91429 5.34857 0 0 0 0 1 -3.3175 0 2
99 1 9.79558 4.44476 2.68125 -10.176 4.55894 -2.37396 1 -7.3703 0.0808975 4
100 1 9.80572 6.24 0.891429 0 0 0 1 -7.01895 0 4
101 1 10.6745 5.32231 1.77849 -6.00757 0.977178 -4.8603 1 -7.34372 0.0377616 4
102 1 12.48 5.34857 0 0 0 0 1 -3.34416 0 2
103 1 11.5886 4.45714 0.891429 0 0 0 1 -7.03491 0 4
104 1 11.5882 6.23161 2.65283 4.20142 1.00385 -5.55093 1 -7.37167 0.030793 4
105 1 8.9343 7.09643 1.81092 -10.6692 -1.43133 -0.747948 1 -7.249 0.0724746 4
106 1 9.81407 8.01037 2.70295 2.18645 -4.44223 -2.03134 1 -7.35629 0.0178265 4
107 1 10.6971 7.13143 0 0 0 0 1 -3.34334 0 2
108 1 12.491 7.09506 1.80569 -1.57427 -5.16642 -5.30489 1 -7.31877 0.0356726 4
109 1 11.5886 8.02286 0.891429 0 0 0 1 -6.94926 0 4
110 1 8.91241 5.34201 3.59983 3.87304 1.47964 1.06806 1 -7.35693 0.0114094 4
111 1 12.4632 5.35181 3.57569 -2.00109 5.63157 -1.03665 1 -7.30124 0.0229013 4
112 1 10.7014 7.13529 3.55868 0.38406 -3.94491 1.43501 1 -7.39071 0.0110599 4
113 1 13.4048 4.40375 2.66886 4.80892 -6.46981 4.03004 1 -7.27975 0.0505568 4
114 1 13.3714 6.24 0.891429 0 0 0 1 -7.04103 0 4
115 1 14.2388 5.37355 1.7828 -2.52068 2.10645 -7.89377 1 -7.28322 0.045501 4
116 1 16.0457 5.34857 0 0 0 0 1 -3.33234 0 2
117 1 15.1543 4.45714 0.891429 0 0 0 1 -6.98968 0 4
118 1 15.1776 6.2741 2.64489 8.31761 -7.00611 4.11084 1 -7.26033 0.0841316 4
119 1 16.923 4.46248 2.66774 -0.0573987 1.60047 0.188133 1 -7.29013 0.00161842 4
120 1 16.9371 6.24 0.891429 0 0 0 1 -7.00961 0 4
121 1 13.39 8.05115 2.71311 -2.93118 0.319118 -11.0767 1 -7.26718 0.0817792 4
122 1 14.2629 7.13143 0 0 0 0 1 -3.35952 0 2
123 1 16.0771 7.14851 1.75193 2.7212 -4.50528 -4.58589 1 -7.37596 0.0303326 4
124 1 15.1543 8.02286 0.891429 0 0 0 1 -7.00352 0 4
125 1 16.9502 8.05019 2.66462 -7.41545 -4.18876 -6.64222 1 -7.32448 0.0726083 4
126 1 16.0277 5.30914 3.60726 -7.57715 -1.25608 5.7167 1 -7.30069 0.0570588 4
127 1 14.2696 7.15501 3.5776 6.221 -9.06218 3.25645 1 -7.31261 0.0818045 4
82 1 21.3759 7.17008 3.56199 -3.99524 -1.8752 7.38835 1 -7.31221 0.0461006 4
129 1 17.8218 5.31956 1.79723 -0.821119 0.988557 0.290965 1 -7.37066 0.00108062 4
130 1 19.6114 5.34857 0 0 0 0 1 -3.33493 0 2
131 1 18.72 4.45714 0.891429 0 0 0 1 -6.99335 0 4
132 1 18.7139 6.22454 2.66721 2.58092 2.32018 0.138687 1 -7.38374 0.0075087 4
133 1 20.5153 4.44577 2.68631 -6.0838 2.27178 -1.5611 1 -7.31956 0.0277668 4
134 1 20.5029 6.24 0.891429 0 0 0 1 -6.97628 0 4
135 1 17.8286 7.13143 0 0 0 0 1 -3.31555 0 2
136 1 19.5607 7.11711 1.7808 -1.79438 -4.98645 5.44984 1 -7.36506 0.0359671 4
137 1 18.72 8.02286 0.891429 0 0 0 1 -7.04254 0 4
138 1 20.4702 8.02837 2.63031 1.09161 -1.871 3.89344 1 -7.33416 0.0123559 4
139 1 19.6016 5.33445 3.58345 1.02316 3.0466 11.3564 1 -7.34897 0.0867023 4
140 1 17.8379 7.10494 3.5714 0.976129 3.36812 5.06389 1 -7.3441 0.0236149 4
141 1 1.78286 8.91429 0 0 0 0 1 -3.32141 0 2
142 1 0.917906 9.7892 2.67247 1.73815 -6.18082 2.24022 1 -7.31637 0.0287824 4
143 1 2.67429 9.80572 0.891429 0 0 0 1 -7.00206 0 4
144 1 3.54667 8.92217 1.76241 3.34891 -4.36435 3.02049 1 -7.34491 0.024515 4
145 1 0 10.6971 0 0 0 0 1 -3.33684 0 2
146 1 1.7498 10.6909 1.83367 4.24593 0.414743 -0.384579 1 -7.33889 0.0114202 4
147 1 1.78286 12.48 0 0 0 0 1 -3.33651 0 2
148 1 0.891429 11.5886 0.891429 0 0 0 1 -7.01011 0 4
149 1 2.58584 11.5841 2.69118 3.74989 -0.364278 0.383563 1 -7.25437 0.00892652 4
150 1 3.56572 10.6971 0 0 0 0 1 -3.35767 0 2
151 1 3.57758 12.4856 1.80175 -3.21457 1.9072 -1.24774 1 -7.31925 0.00966484 4
152 1 1.84186 8.9378 3.59469 8.73584 -0.428254 3.42792 1 -7.29277 0.0549285 4
153 1 1.73956 12.4802 3.64065 1.4271 -0.441131 -7.60879 1 -7.3386 0.0374233 4
154 1 3.54212 10.6945 3.5621 3.73669 -2.51488 -2.44526 1 -7.28264 0.0163492 4
205 1 0.021523 8.88733 1.77539 7.79864 -5.71945 -1.6322 1 -7.38032 0.0598743 4
204 1 0.0274687 12.5029 1.75508 12.8013 -1.76385 -1.01066 1 -7.32153 0.104571 4
155 1 5.34857 8.91429 0 0 0 0 1 -3.32381 0 2
156 1 4.46562 9.80947 2.67426 -1.98846 -3.42743 6.48752 1 -7.34117 0.0359695 4
157 1 6.24 9.80572 0.891429 0 0 0 1 -7.01111 0 4
158 1 7.11986 8.90452 1.74965 3.57236 3.01539 -1.65744 1 -7.30672 0.0153126 4
159 1 7.98573 9.789 2.71473 4.95257 2.72789 2.28558 1 -7.29027 0.02315 4
160 1 5.34609 10.7051 1.82071 2.89192 -8.18593 1.42776 1 -7.33832 0.0481828 4
161 1 5.34857 12.48 0 0 0 0 1 -3.34141 0 2
162 1 4.45714 11.5886 0.891429 0 0 0 1 -7.01825 0 4
163 1 6.2149 11.5966 2.74811 4.42957 0.752657 -8.32048 1 -7.35709 0.055656 4
164 1 7.13143 10.6971 0 0 0 0 1 -3.33195 0 2
165 1 7.08834 12.4691 1.80075 6.3229 0.292934 -0.0744142 1 -7.2769 0.0249409 4
166 1 8.02286 11.5886 0.891429 0 0 0 1 -7.03785 0 4
167 1 5.3488 8.90481 3.56362 5.72081 -12.6676 -0.142216 1 -7.33747 0.120262 4
168 1 5.32951 12.516 3.6162 -8.6329 -2.44312 0.68615 1 -7.36203 0.0503957 4
169 1 7.17601 10.7091 3.57349 0.703183 3.34309 5.78845 1 -7.31306 0.0281192 4
170 1 8.91429 8.91429 0 0 0 0 1 -3.33358 0 2
171 1 9.80572 9.80572 0.891429 0 0 0 1 -6.99777 0 4
172 1 10.6744 8.94073 1.77484 -4.91296 -2.54858 -1.53603 1 -7.33711 0.020535 4
173 1 12.48 8.91429 0 0 0 0 1 -3.34072 0 2
174 1 11.597 9.7943 2.69814 -4.76313 2.8822 3.38183 1 -7.31586 0.0264103 4
175 1 8.86916 10.7388 1.78173 -4.07851 -1.94089 0.444696 1 -7.26259 0.0128214 4
176 1 8.91429 12.48 0 0 0 0 1 -3.33134 0 2
177 1 9.8207 11.583 2.65595 1.03909 2.79475 10.0048 1 -7.3867 0.0678358 4
178 1 10.6971 10.6971 0 0 0 0 1 -3.32555 0 2
179 1 10.7072 12.4542 1.81879 -0.432328 5.57411 -2.10294 1 -7.33232 0.0222081 4
180 1 12.4771 10.6627 1.78075 -2.18359 -0.870619 -2.59174 1 -7.31544 0.00762047 4
181 1 12.48 12.48 0 0 0 0 1 -3.33441 0 2
182 1 11.5886 11.5886 0.891429 0 0 0 1 -7.0001 0 4
183 1 8.92307 8.87495 3.59716 6.15225 -0.265966 7.48348 1 -7.32031 0.0584604 4
184 1 12.4994 8.89531 3.62364 0.0508835 6.99951 -3.19851 1 -7.32339 0.0368639 4
185 1 8.94161 12.4907 3.56755 -6.55783 4.28067 -1.08809 1 -7.24215 0.0389099 4
186 1 10.6881 10.6763 3.56054 2.59482 -10.1903 1.6117 1 -7.3429 0.0704412 4
187 1 12.4277 12.4854 3.54333 0.252842 1.51758 0.224568 1 -7.41604 0.00150466 4
188 1 13.3714 9.80572 0.891429 0 0 0 1 -7.05434 0 4
189 1 14.2872 8.96734 1.75728 0.217258 4.50494 -2.5355 1 -7.33243 0.0166626 4
190 1 16.0457 8.91429 0 0 0 0 1 -3.31063 0 2
191 1 15.1667 9.80988 2.65105 -3.46796 7.48956 -1.61746 1 -7.32302 0.0440282 4
192 1 16.9371 9.80572 0.891429 0 0 0 1 -6.9949 0 4
193 1 13.3356 11.5868 2.67072 -0.112948 -6.91596 0.565355 1 -7.32278 0.0299778 4
194 1 14.2629 10.6971 0 0 0 0 1 -3.32889 0 2
195 1 14.2434 12.4506 1.75071 -4.55813 -1.85259 -8.47502 1 -7.36528 0.0597745 4
196 1 16.0869 10.7554 1.77152 -5.5796 0.720846 -2.89725 1 -7.33804 0.0249254 4
197 1 16.0457 12.48 0 0 0 0 1 -3.31777 0 2
198 1 15.1543 11.5886 0.891429 0 0 0 1 -7.02544 0 4
199 1 16.9646 11.6264 2.63107 -2.24783 -1.26559 2.14657 1 -7.37528 0.00700992 4
200 1 16.0623 8.90617 3.51534 0.777605 0.0959766 3.96648 1 -7.36046 0.0101747 4
201 1 14.2427 10.6688 3.53436 9.33536 -6.35353 1.39003 1 -7.30888 0.080572 4
202 1 16.0744 12.4488 3.56568 -0.799962 -1.69895 -5.25195 1 -7.36497 0.0193633 4
203 1 21.368 10.6881 3.58227 0.762316 -0.59034 -4.86685 1 -7.27028 0.0153216 4
206 1 17.8342 8.90921 1.75454 5.20613 3.62151 -9.21428 1 -7.36393 0.0778793 4
207 1 19.6114 8.91429 0 0 0 0 1 -3.33611 0 2
208 1 18.6728 9.7846 2.67074 -4.26209 0.0671197 0.294388 1 -7.31986 0.0113634 4
209 1 20.5029 9.80572 0.891429 0 0 0 1 -7.00827 0 4
210 1 17.8286 10.6971 0 0 0 0 1 -3.30876 0 2
211 1 17.8491 12.5134 1.7632 7.09331 7.3484 -6.80572 1 -7.39561 0.0937572 4
212 1 19.6183 10.684 1.75395 -0.552955 -0.0922839 -11.231 1 -7.3189 0.0787051 4
213 1 19.6114 12.48 0 0 0 0 1 -3.32968 0 2
214 1 18.72 11.5886 0.891429 0 0 0 1 -7.00057 0 4
215 1 20.4917 11.5926 2.67335 -3.4268 -2.14967 -8.83721 1 -7.2968 0.0587946 4
216 1 19.5705 8.88294 3.54913 9.94102 3.83072 -6.55104 1 -7.33333 0.0973563 4
217 1 17.8614 10.711 3.54281 -9.89019 6.03244 -3.30241 1 -7.35063 0.0903216 4
218 1 19.5891 12.4988 3.56636 5.5412 -0.720349 0.862187 1 -7.34232 0.0198972 4
219 1 0.887138 13.3895 2.66127 -3.69828 -0.243256 -3.45631 1 -7.33091 0.0159855 4
220 1 2.67429 13.3714 0.891429 0 0 0 1 -6.99717 0 4
221 1 0 14.2629 0 0 0 0 1 -3.30497 0 2
222 1 1.78312 14.256 1.76239 4.47322 -4.05146 -1.2974 1 -7.35837 0.0237189 4
223 1 1.78286 16.0457 0 0 0 0 1 -3.30987 0 2
224 1 0.891429 15.1543 0.891429 0 0 0 1 -7.05322 0 4
225 1 0.871702 16.9026 2.66011 -2.96347 -0.477656 5.02219 1 -7.30676 0.0213073 4
226 1 2.67523 15.1396 2.68596 -1.85054 0.120102 3.86382 1 -7.33128 0.0114327 4
227 1 2.67429 16.9371 0.891429 0 0 0 1 -6.99992 0 4
228 1 3.56572 14.2629 0 0 0 0 1 -3.33061 0 2
229 1 3.54052 16.0187 1.75047 1.21848 0.0508086 -5.18205 1 -7.34454 0.0176402 4
230 1 1.7881 16.0014 3.55734 3.19788 3.38941 -3.30459 1 -7.34855 0.0203128 4
231 1 3.5764 14.2469 3.61629 -6.11944 4.56922 -3.10177 1 -7.35449 0.0422916 4
233 1 0.00165081 16.0259 1.74474 5.61077 3.34795 0.886365 1 -7.35228 0.0270601 4
232 1 0.00748175 14.2762 3.54963 2.18879 4.25307 -2.95966 1 -7.37234 0.0196929 4
234 1 4.4362 13.3903 2.70283 2.77322 10.964 2.67325 1 -7.33046 0.0840562 4
235 1 6.24 13.3714 0.891429 0 0 0 1 -7.00023 0 4
236 1 7.96467 13.3835 2.70919 2.54882 4.90666 2.58555 1 -7.29244 0.0231897 4
237 1 5.36426 14.3057 1.79225 10.2354 -3.43224 -7.27355 1 -7.2928 0.105469 4
238 1 5.34857 16.0457 0 0 0 0 1 -3.346 0 2
239 1 4.45714 15.1543 0.891429 0 0 0 1 -7.02711 0 4
240 1 4.4641 16.9559 2.63747 1.38797 -1.43406 -2.52926 1 -7.33372 0.00646086 4
241 1 6.28656 15.1647 2.73521 -3.83425 0.245689 2.72649 1 -7.30892 0.0138151 4
242 1 6.24 16.9371 0.891429 0 0 0 1 -7.04861 0 4
243 1 7.13143 14.2629 0 0 0 0 1 -3.32809 0 2
244 1 7.16505 16.0617 1.78069 -3.33229 1.47376 -4.0419 1 -7.31575 0.018432 4
245 1 8.02286 15.1543 0.891429 0 0 0 1 -7.01916 0 4
246 1 8.01807 16.9413 2.68526 8.224 1.06018 -2.54717 1 -7.3892 0.0468352 4
247 1 5.38209 16.0741 3.55239 6.51092 7.91489 -1.4788 1 -7.32139 0.0667393 4
248 1 7.08831 14.2625 3.61016 6.96105 -0.0456459 4.15542 1 -7.37517 0.0409095 4
249 1 9.80572 13.3714 0.891429 0 0 0 1 -7.00418 0 4
250 1 11.5669 13.3567 2.7068 3.42137 -3.59572 3.08845 1 -7.31433 0.0212705 4
251 1 8.87016 14.2235 1.77447 0.491698 7.65138 -1.84175 1 -7.31632 0.0387008 4
252 1 8.91429 16.0457 0 0 0 0 1 -3.34037 0 2
253 1 9.7279 15.1242 2.69687 1.80674 2.45376 8.29457 1 -7.28933 0.0486023 4
254 1 9.80572 16.9371 0.891429 0 0 0 1 -7.02789 0 4
255 1 10.6971 14.2629 0 0 0 0 1 -3.35881 0 2
256 1 10.6919 16.06 1.78142 -9.40072 -0.691429 -2.14305 1 -7.25852 0.0581622 4
257 1 12.4695 14.3012 1.77241 -0.125521 1.38086 5.47583 1 -7.28299 0.0198599 4
258 1 12.48 16.0457 0 0 0 0 1 -3.32208 0 2
259 1 11.5886 15.1543 0.891429 0 0 0 1 -7.03495 0 4
260 1 11.5969 16.9466 2.68383 -9.85799 -5.73715 -1.2549 1 -7.35597 0.0819546 4
261 1 8.85297 16.0408 3.54442 -7.95346 -2.14739 -7.71621 1 -7.35732 0.0793025 4
262 1 10.6231 14.2588 3.57636 -2.76031 -6.59219 3.84461 1 -7.30626 0.0409913 4
263 1 12.4587 16.0478 3.53143 6.60455 2.23037 -4.46773 1 -7.30605 0.0426705 4
264 1 13.3714 13.3714 0.891429 0 0 0 1 -6.97852 0 4
265 1 15.1287 13.3462 2.66431 -1.30326 8.83684 3.53761 1 -7.30731 0.0574518 4
266 1 16.9371 13.3714 0.891429 0 0 0 1 -6.99993 0 4
267 1 13.424 15.164 2.6409 1.72346 -10.8183 -3.50248 1 -7.30323 0.0823309 4
268 1 13.3714 16.9371 0.891429 0 0 0 1 -7.04238 0 4
269 1 14.2629 14.2629 0 0 0 0 1 -3.31788 0 2
270 1 14.2694 16.0294 1.744 -6.58993 -0.471916 4.91282 1 -7.37997 0.0421916 4
271 1 16.0031 14.2517 1.79826 -0.809994 -2.38413 -0.18628 1 -7.3358 0.00396789 4
272 1 16.0457 16.0457 0 0 0 0 1 -3.35209 0 2
273 1 15.1543 15.1543 0.891429 0 0 0 1 -7.01227 0 4
274 1 15.1552 16.9281 2.67159 -0.643906 -2.25045 13.0137 1 -7.29618 0.108822 4
275 1 16.8983 15.1911 2.68144 -3.41978 2.98806 2.71207 1 -7.30421 0.0174146 4
276 1 16.9371 16.9371 0.891429 0 0 0 1 -7.02506 0 4
277 1 14.2523 14.2315 3.54253 6.21988 -3.82612 -8.72582 1 -7.36973 0.0805831 4
278 1 16.0084 16.0823 3.59377 -1.77739 -4.27711 -6.22131 1 -7.35369 0.0374436 4
279 1 18.7318 13.3848 2.63815 4.18131 3.99101 -5.08305 1 -7.34995 0.0368781 4
280 1 20.5029 13.3714 0.891429 0 0 0 1 -7.03369 0 4
281 1 17.8286 14.2629 0 0 0 0 1 -3.3264 0 2
282 1 17.7939 16.059 1.77846 6.4824 6.64754 3.22445 1 -7.35302 0.0601316 4
283 1 19.6479 14.2602 1.77223 5.96524 3.36501 -1.3123 1 -7.3336 0.0302682 4
284 1 19.6114 16.0457 0 0 0 0 1 -3.30877 0 2
285 1 18.72 15.1543 0.891429 0 0 0 1 -6.98777 0 4
286 1 18.6831 16.9601 2.68823 -1.56917 10.6241 -3.48702 1 -7.32204 0.0793548 4
287 1 20.5045 15.1964 2.68541 11.9984 9.61757 -2.31077 1 -7.36735 0.150502 4
288 1 20.5029 16.9371 0.891429 0 0 0 1 -7.064 0 4
289 1 17.8147 14.2925 3.56168 -1.38212 -1.4215 -0.817571 1 -7.34774 0.00286275 4
290 1 19.6053 16.0351 3.55714 -3.56415 5.30386 -1.43106 1 -7.34689 0.0266909 4
291 1 3.57341 21.3781 3.58302 9.88668 -3.66588 11.8628 1 -7.32621 0.156796 4
293 1 0 17.8286 0 0 0 0 1 -3.333 0 2
294 1 1.75191 17.8243 1.77787 -1.0328 5.16645 -4.70753 1 -7.31921 0.0310713 4
295 1 1.78286 19.6114 0 0 0 0 1 -3.3339 0 2
296 1 0.891429 18.72 0.891429 0 0 0 1 -7.01892 0 4
297 1 0.88415 20.4816 2.67322 0.80986 1.99333 4.78415 1 -7.29146 0.0171275 4
298 1 2.67331 18.7288 2.68111 3.76525 2.69524 -4.50944 1 -7.30775 0.0260028 4
299 1 2.67429 20.5029 0.891429 0 0 0 1 -7.03488 0 4
300 1 3.56572 17.8286 0 0 0 0 1 -3.33215 0 2
301 1 3.51312 19.6198 1.76958 0.232294 7.76294 9.44302 1 -7.34865 0.0930451 4
302 1 1.77284 19.6125 3.60565 3.46503 2.29308 -1.14157 1 -7.34528 0.0115571 4
303 1 3.58236 17.8031 3.53192 -9.27525 1.91443 3.41852 1 -7.37521 0.0631026 4
304 1 -0.0092794 17.8535 3.5412 -8.08742 -3.2703 -2.55881 1 -7.33286 0.0514428 4
350 1 0.00557833 21.3963 3.62332 -6.22188 1.87315 14.5562 1 -7.33933 0.15816 4
307 1 5.38097 17.8198 1.78651 -0.881189 -4.76655 -2.54489 1 -7.3753 0.018656 4
308 1 5.34857 19.6114 0 0 0 0 1 -3.33746 0 2
309 1 4.45714 18.72 0.891429 0 0 0 1 -6.95756 0 4
310 1 4.43402 20.5197 2.67419 -7.13819 6.20648 0.613156 1 -7.30359 0.0559251 4
311 1 6.20429 18.7371 2.68868 -1.47446 10.2921 5.47901 1 -7.33804 0.0859696 4
312 1 6.24 20.5029 0.891429 0 0 0 1 -7.00276 0 4
313 1 7.13143 17.8286 0 0 0 0 1 -3.32555 0 2
314 1 7.14377 19.6346 1.78003 -0.995227 0.982192 -4.66014 1 -7.30648 0.0147341 4
315 1 8.02286 18.72 0.891429 0 0 0 1 -7.01674 0 4
316 1 8.01266 20.5627 2.70984 6.80742 3.39885 -0.173517 1 -7.37845 0.036053 4
317 1 5.33291 19.624 3.58477 -2.20906 5.53262 2.56401 1 -7.37359 0.0261817 4
318 1 7.13515 17.8608 3.57121 -2.60204 -5.96091 -0.576813 1 -7.30173 0.0265376 4
319 1 10.6974 21.389 3.56981 -1.5962 -0.268474 -3.82625 1 -7.3549 0.0107432 4
322 1 8.91303 17.8206 1.78173 -9.21787 -2.19103 -3.9482 1 -7.3242 0.0655776 4
323 1 8.91429 19.6114 0 0 0 0 1 -3.32887 0 2
324 1 9.79527 18.7686 2.65961 5.22403 -0.94476 -3.52484 1 -7.34512 0.0252752 4
325 1 9.80572 20.5029 0.891429 0 0 0 1 -6.98672 0 4
326 1 10.6971 17.8286 0 0 0 0 1 -3.32595 0 2
327 1 10.6672 19.622 1.75762 -1.35799 -0.101198 -3.15566 1 -7.41345 0.00735245 4
328 1 12.496 17.8215 1.77561 -2.54215 4.19784 -6.13694 1 -7.37151 0.0384325 4
329 1 12.48 19.6114 0 0 0 0 1 -3.34167 0 2
330 1 11.5886 18.72 0.891429 0 0 0 1 -7.02294 0 4
331 1 11.5398 20.5162 2.66978 4.74656 0.501145 0.688013 1 -7.25865 0.0144741 4
332 1 8.90583 19.6463 3.58607 -3.70584 1.04574 1.71018 1 -7.38676 0.011049 4
333 1 10.6272 17.8254 3.55238 7.14249 3.28117 0.719464 1 -7.3082 0.0387765 4
334 1 12.5004 19.623 3.55979 2.4335 -9.16211 -7.12092 1 -7.27074 0.0874967 4
335 1 16.0508 21.3831 1.76161 0.0290455 0.103287 2.72137 1 -7.30666 0.00461675 4
336 1 14.288 21.3765 3.58708 4.90779 8.3534 -5.31066 1 -7.41462 0.0759788 4
337 1 13.4036 18.7403 2.67637 -2.13306 7.10076 0.313544 1 -7.33057 0.0342764 4
338 1 13.3714 20.5029 0.891429 0 0 0 1 -7.01451 0 4
339 1 14.2629 17.8286 0 0 0 0 1 -3.33593 0 2
340 1 14.2768 19.6286 1.76578 -3.73433 -2.25892 -3.88411 1 -7.36625 0.021246 4
341 1 16.0888 17.8329 1.76297 -4.58991 -1.99561 0.829426 1 -7.32799 0.0160198 4
342 1 16.0457 19.6114 0 0 0 0 1 -3.31686 0 2
343 1 15.1543 18.72 0.891429 0 0 0 1 -7.01621 0 4
344 1 15.1567 20.5376 2.70206 -2.37885 -0.940899 5.19962 1 -7.31236 0.0209013 4
345 1 16.9774 18.7469 2.68952 -4.73815 3.38247 0.672551 1 -7.34528 0.0213763 4
346 1 16.9371 20.5029 0.891429 0 0 0 1 -7.0442 0 4
347 1 14.264 17.8258 3.57547 3.12824 3.8716 -3.54965 1 -7.30783 0.0232633 4
348 1 16.1036 19.6533 3.58736 2.70698 -1.71062 4.83093 1 -7.37205 0.0209085 4
305 1 21.3729 19.6358 1.76752 -7.30606 4.45976 -6.931 1 -7.36679 0.0755045 4
351 1 17.8286 17.8286 0 0 0 0 1 -3.32246 0 2
352 1 17.8179 19.6312 1.8148 -3.37086 -1.40109 -3.57437 1 -7.30556 0.0162465 4
353 1 19.6105 17.7805 1.77954 -1.40185 5.43227 2.60775 1 -7.31673 0.0238234 4
354 1 19.6114 19.6114 0 0 0 0 1 -3.34421 0 2
355 1 18.72 18.72 0.891429 0 0 0 1 -6.9345 0 4
356 1 18.7367 20.4933 2.72347 -0.795085 -0.995859 0.420564 1 -7.28765 0.00112085 4
357 1 20.4461 18.7413 2.66745 3.10143 0.669421 2.15935 1 -7.3115 0.00916821 4
358 1 20.5029 20.5029 0.891429 0 0 0 1 -7.0346 0 4
359 1 17.8339 17.8722 3.52907 0.225224 -1.96916 0.373647 1 -7.37044 0.00253198 4
360 1 19.5756 19.6204 3.55759 -4.36765 1.61107 -4.3529 1 -7.30143 0.0252827 4
361 1 0.895342 0.895431 4.50337 0.198398 -1.90326 5.37205 1 -7.36536 0.0202417 4
362 1 0.963287 2.67071 6.29445 8.24624 -5.47837 1.78612 1 -7.34306 0.0629915 4
363 1 2.69431 0.888798 6.24881 1.92383 5.57171 6.12747 1 -7.27664 0.0449958 4
364 1 2.67463 2.68759 4.48829 -6.70294 -0.455215 1.42387 1 -7.37615 0.0293561 4
365 1 3.56266 1.82533 5.30652 6.58193 -15.691 -0.545526 1 -7.33978 0.180397 4
366 1 1.80713 3.56703 5.36862 4.38505 -12.6045 7.3714 1 -7.31877 0.144677 4
367 1 1.80045 1.79135 7.16648 -1.38119 -0.897324 3.79881 1 -7.28212 0.0106708 4
368 1 0.916834 0.868366 8.0716 -7.2806 1.69283 -1.28311 1 -7.32537 0.0358014 4
369 1 2.67947 2.74965 8.0343 11.6272 2.88498 4.58168 1 -7.30954 0.102394 4
370 1 3.60788 3.59044 7.10399 6.21357 -1.20433 1.52344 1 -7.38798 0.0263783 4
411 1 0.0424446 1.80202 5.42551 -2.27267 6.79597 0.220356 1 -7.30561 0.031992 4
371 1 0.0181932 3.57129 7.16232 1.07989 4.9276 -3.95412 1 -7.26346 0.0255708 4
372 1 4.44956 0.934981 4.49258 2.08989 6.13949 -3.65332 1 -7.25403 0.0344872 4
373 1 4.43651 2.69512 6.24503 1.53638 -3.8126 -2.35972 1 -7.37067 0.0139826 4
374 1 6.27693 0.919354 6.26692 7.24522 -4.88091 0.377302 1 -7.34324 0.04759 4
375 1 6.23645 2.70141 4.47182 -3.14747 -5.41574 -0.0168902 1 -7.29132 0.0244222 4
376 1 7.15925 1.78184 5.35492 -4.8595 -3.77535 -6.04528 1 -7.36703 0.0463169 4
377 1 7.98305 0.882962 4.44418 6.74182 -1.84742 -8.3561 1 -7.31142 0.0738756 4
378 1 8.04278 2.6785 6.2412 -2.93221 -0.524789 4.03078 1 -7.32576 0.0156356 4
379 1 5.362 3.5794 5.35829 1.26861 3.9126 -1.2757 1 -7.35995 0.011543 4
380 1 5.34733 1.83094 7.14253 -2.06474 -4.88786 4.98585 1 -7.31984 0.0329967 4
381 1 4.45963 0.908804 8.03116 0.419402 -1.72868 -2.90091 1 -7.36574 0.00720739 4
382 1 6.2998 2.70631 8.02423 -0.978017 10.5314 -4.80531 1 -7.33349 0.0840008 4
383 1 8.09423 0.882913 8.05011 8.81084 2.49996 3.80629 1 -7.34967 0.0612272 4
384 1 7.1822 3.55543 7.15777 -9.07674 -2.8524 -0.15523 1 -7.35431 0.0563592 4
665 1 7.14861 0.016457 7.17088 5.59847 -2.32055 -4.13084 1 -7.32265 0.0334813 4
385 1 5.35564 0.042712 5.43424 -2.62958 -2.23098 -1.41585 1 -7.34728 0.00864961 4
386 1 9.81034 0.871152 6.29003 -0.501096 1.40496 10.6028 1 -7.37147 0.0713572 4
387 1 9.85162 2.69606 4.49279 -3.12491 -0.443006 -1.43921 1 -7.37691 0.00748945 4
388 1 10.7064 1.78968 5.40007 -6.5881 -2.75576 2.21714 1 -7.33281 0.0348017 4
389 1 11.5915 0.897706 4.48885 -2.28681 -3.5326 10.2077 1 -7.3445 0.0758775 4
390 1 11.5925 2.64825 6.26707 -1.03469 -0.4192 0.978052 1 -7.29426 0.00137114 4
391 1 8.96514 3.6039 5.36889 3.47973 4.11759 -9.00191 1 -7.34513 0.0685276 4
392 1 12.4251 3.57334 5.3672 5.64425 1.31264 -1.30716 1 -7.33012 0.0219649 4
393 1 8.94575 1.75705 7.18273 4.95556 0.229538 2.79649 1 -7.32002 0.0201857 4
394 1 9.80961 2.67168 8.03044 5.2371 5.70334 7.61433 1 -7.25525 0.0734048 4
395 1 12.4658 1.71931 7.18426 0.414842 1.29317 -1.60055 1 -7.33493 0.00274251 4
396 1 11.5851 0.868769 8.06777 -0.718083 3.73003 -7.07067 1 -7.33993 0.0400987 4
397 1 10.6877 3.59697 7.12509 -1.77994 -2.18827 -1.94768 1 -7.31866 0.00731361 4
680 1 12.4843 0.00148101 5.39597 -1.70088 -3.54042 -3.94699 1 -7.36488 0.0192991 4
679 1 8.92386 0.0363386 5.35393 0.281735 1.74885 -4.9423 1 -7.33317 0.0171566 4
398 1 13.3701 0.854016 6.27255 -0.581227 -5.34859 -3.42075 1 -7.36319 0.0252996 4
399 1 13.3727 2.67238 4.50122 -3.50863 5.85896 -1.30631 1 -7.26019 0.0300908 4
400 1 14.2549 1.77973 5.41955 -0.319359 -3.46939 0.364962 1 -7.35964 0.0076383 4
401 1 15.1636 0.868091 4.48668 6.18092 1.96424 1.34499 1 -7.29613 0.0273065 4
402 1 15.1463 2.68598 6.26264 -11.2424 0.351642 1.30164 1 -7.39271 0.079801 4
403 1 16.9452 0.958001 6.27146 3.14138 -5.66586 4.79267 1 -7.31331 0.0404203 4
404 1 16.9388 2.67279 4.51866 -0.907508 9.92125 -1.38957 1 -7.28795 0.0629807 4
405 1 16.0355 3.55953 5.40303 -2.2479 -2.66905 4.43473 1 -7.34806 0.0198204 4
406 1 13.3452 2.67649 8.01779 -0.908738 -3.95403 6.00893 1 -7.30033 0.0327194 4
407 1 16.0172 1.8612 7.178 1.55183 -2.6029 3.46365 1 -7.30395 0.0131831 4
408 1 15.1339 0.902675 8.04498 -1.35746 -1.76025 -4.53851 1 -7.33333 0.0158963 4
409 1 16.9328 2.6374 8.08473 8.7557 3.09588 4.4398 1 -7.33855 0.0659514 4
410 1 14.1987 3.58446 7.12044 11.4347 0.944148 -1.11193 1 -7.36268 0.0827074 4
694 1 16.0549 0.016053 5.3794 5.33302 -0.953196 6.71432 1 -7.32824 0.0463282 4
412 1 17.8581 1.79796 5.43811 1.76278 3.45332 -2.16401 1 -7.3258 0.0122716 4
413 1 18.7157 0.879529 4.51765 -0.953401 2.29685 -6.88586 1 -7.40824 0.0333618 4
414 1 18.7486 2.73335 6.26732 0.36835 1.07189 -1.35456 1 -7.35926 0.00194163 4
415 1 20.5242 0.874765 6.27878 5.94818 -0.233284 4.55867 1 -7.28149 0.0349907 4
416 1 20.4892 2.66698 4.52474 -1.3858 1.60802 2.59477 1 -7.2742 0.00699545 4
417 1 19.6251 3.6026 5.35548 -2.26831 0.0875251 -4.94707 1 -7.4071 0.0184402 4
418 1 19.6232 1.82549 7.19977 1.21349 -3.48139 2.77397 1 -7.25932 0.0132499 4
419 1 18.7109 0.869345 8.07526 2.77806 -0.349672 4.21772 1 -7.2608 0.0159522 4
420 1 20.5328 2.68639 8.08259 3.19929 5.1213 2.32586 1 -7.30296 0.0260627 4
421 1 17.8108 3.58644 7.16737 1.38483 -3.12503 5.6657 1 -7.27265 0.0272521 4
709 1 17.762 0.0362989 7.13576 -12.8333 6.62595 0.778676 1 -7.2946 0.130213 4
422 1 19.5927 0.0288952 5.38473 10.6073 -2.06809 2.11065 1 -7.30828 0.0754673 4
423 1 0.936076 4.50064 4.45113 2.02882 3.78838 0.631813 1 -7.35965 0.0117434 4
424 1 0.892129 6.27798 6.28447 -2.69203 2.45802 6.85921 1 -7.34966 0.0375558 4
425 1 2.70227 4.49647 6.26009 8.63632 5.9132 -3.58762 1 -7.30945 0.0761993 4
426 1 2.66775 6.3 4.51377 -2.70271 -4.15148 8.53962 1 -7.39418 0.0606645 4
427 1 3.55354 5.35978 5.34916 0.812793 -0.992374 3.94872 1 -7.30255 0.0107293 4
428 1 1.79392 7.14755 5.34975 -2.0856 -7.62476 -5.96779 1 -7.32483 0.0610608 4
429 1 0.900971 8.06516 4.4974 2.65974 -0.539875 -5.58012 1 -7.33514 0.0239655 4
430 1 2.70398 8.04706 6.22829 5.6917 9.09129 3.44495 1 -7.35464 0.078995 4
431 1 1.81136 5.37866 7.16397 -2.42947 1.68347 5.13831 1 -7.36454 0.0218712 4