ITEM: TIMESTEP
49124875
ITEM: NUMBER OF ATOMS
3060
ITEM: BOX BOUNDS pp pp mm
0.0000000000000000e+00 2.1394294200000001e+01
0.0000000000000000e+00 2.1394294200000001e+01
-5.3491084073550004e-03 5.3485735499999997e+01
ITEM: ATOMS id type x y z vx vy vz c_clusts c_atom_pe c_atom_ke c_atom_coord
1 1 0 0 0 0 0 0 1 -3.32789 0 2
2 1 1.78286 1.78286 0 0 0 0 1 -3.32413 0 2
3 1 0.891429 0.891429 0.891429 0 0 0 1 -7.01271 0 4
4 1 0.888265 2.66177 2.70465 -0.198987 -3.03051 -2.31685 1 -7.34235 0.00908206 4
5 1 2.64502 0.856283 2.6863 1.5176 0.734261 9.87218 1 -7.36032 0.0624308 4
6 1 2.67429 2.67429 0.891429 0 0 0 1 -7.00851 0 4
7 1 3.56572 0 0 0 0 0 1 -3.33385 0 2
8 1 3.52707 1.74695 1.76836 8.39109 6.42783 -5.58928 1 -7.34609 0.0889867 4
9 1 0 3.56572 0 0 0 0 1 -3.34782 0 2
10 1 1.77459 3.53894 1.82059 -1.41745 5.90666 -4.50186 1 -7.36461 0.0355807 4
11 1 3.56572 3.56572 0 0 0 0 1 -3.34824 0 2
12 1 1.79669 1.7612 3.63181 -2.58586 -3.76704 8.79992 1 -7.33417 0.0611943 4
13 1 3.54328 3.6188 3.57498 -7.89017 1.39842 0.303852 1 -7.29575 0.0400237 4
292 1 1.79587 0.00968006 1.77892 5.33631 -0.933388 -3.27153 1 -7.34369 0.0249284 4
291 1 3.55011 -0.0065364 3.55772 10.1196 -4.46128 9.9154 1 -7.30402 0.137322 4
56 1 0.0317565 3.56444 3.59457 11.8995 -1.33965 2.12739 1 -7.33097 0.092069 4
14 1 5.34857 1.78286 0 0 0 0 1 -3.32438 0 2
15 1 4.45714 0.891429 0.891429 0 0 0 1 -7.03927 0 4
16 1 4.40952 2.63845 2.68466 5.87139 3.20847 -4.5144 1 -7.29978 0.0405494 4
17 1 6.20125 0.893895 2.70581 -4.39796 1.50552 2.11821 1 -7.34767 0.0162425 4
18 1 6.24 2.67429 0.891429 0 0 0 1 -6.98095 0 4
19 1 7.13143 0 0 0 0 0 1 -3.32207 0 2
20 1 7.15501 1.7666 1.74996 -4.38882 -1.50078 2.95033 1 -7.2571 0.0188088 4
21 1 8.02286 0.891429 0.891429 0 0 0 1 -7.04194 0 4
22 1 8.02542 2.70212 2.69677 3.90079 4.00727 -3.90017 1 -7.25812 0.0289339 4
23 1 5.32389 3.53932 1.80369 2.69296 2.61803 -0.805609 1 -7.31579 0.00918398 4
24 1 7.13143 3.56572 0 0 0 0 1 -3.34969 0 2
25 1 5.35015 1.81554 3.53015 6.3631 7.66013 -9.48983 1 -7.3163 0.117778 4
26 1 7.19305 3.61432 3.60485 3.16433 -2.62451 4.26944 1 -7.29949 0.0218653 4
306 1 7.09112 0.0205191 3.55677 6.17203 -8.27261 -4.29405 1 -7.38552 0.0777839 4
27 1 5.34766 0.0549596 1.76563 -3.20229 -2.55919 -3.17773 1 -7.31751 0.0167446 4
28 1 8.91429 1.78286 0 0 0 0 1 -3.35342 0 2
29 1 9.83167 0.921974 2.66943 6.7384 -0.723397 -10.2055 1 -7.34065 0.0934146 4
30 1 9.80572 2.67429 0.891429 0 0 0 1 -7.01763 0 4
31 1 10.6971 0 0 0 0 0 1 -3.35507 0 2
32 1 10.7151 1.79118 1.79896 -4.28417 3.85577 -0.443554 1 -7.36925 0.0208002 4
33 1 12.48 1.78286 0 0 0 0 1 -3.31495 0 2
34 1 11.5886 0.891429 0.891429 0 0 0 1 -7.01599 0 4
35 1 11.6145 2.68792 2.66744 8.53354 -0.0435391 4.29582 1 -7.4134 0.0568134 4
36 1 8.95395 3.57566 1.78674 3.77726 -0.571897 -0.562862 1 -7.30513 0.00928136 4
37 1 10.6971 3.56572 0 0 0 0 1 -3.31929 0 2
38 1 12.4895 3.56039 1.77609 -1.39587 -4.64007 -8.11635 1 -7.40938 0.0556162 4
39 1 8.94038 1.83036 3.57366 -0.137544 -0.28867 -0.438068 1 -7.23127 0.000183088 4
40 1 12.4802 1.81171 3.58475 4.50494 -7.35313 2.54584 1 -7.28983 0.0503197 4
41 1 10.7172 3.55197 3.57861 4.95935 -0.226772 -1.75122 1 -7.32944 0.0172495 4
319 1 10.7005 -0.00206845 3.57853 -1.00937 -2.48406 -3.62258 1 -7.36296 0.012643 4
321 1 12.4855 0.0399369 1.79036 8.92307 0.825868 -4.34998 1 -7.27843 0.0617605 4
320 1 8.89481 0.0268652 1.81827 3.77339 6.67708 -4.89895 1 -7.33509 0.0515503 4
42 1 13.4229 0.85124 2.6919 3.2696 5.28968 4.02668 1 -7.28938 0.034162 4
43 1 13.3714 2.67429 0.891429 0 0 0 1 -7.03449 0 4
44 1 14.2629 0 0 0 0 0 1 -3.30363 0 2
45 1 14.2496 1.73873 1.78176 -0.353885 -1.26448 -1.45737 1 -7.31217 0.00239514 4
46 1 16.0457 1.78286 0 0 0 0 1 -3.34351 0 2
47 1 15.1543 0.891429 0.891429 0 0 0 1 -7.01997 0 4
48 1 15.1925 2.62337 2.71855 -1.03051 1.98598 1.20375 1 -7.29751 0.0040178 4
49 1 16.9543 0.850644 2.70518 8.67844 -4.08125 -0.432914 1 -7.31227 0.0573624 4
50 1 16.9371 2.67429 0.891429 0 0 0 1 -7.01294 0 4
51 1 14.2629 3.56572 0 0 0 0 1 -3.33898 0 2
52 1 16.0342 3.56459 1.76982 -6.86268 5.46776 -1.92617 1 -7.3424 0.0502317 4
53 1 16.0351 1.7483 3.60094 7.18904 3.77278 -4.78186 1 -7.38375 0.0552605 4
54 1 14.3286 3.57181 3.58823 1.99538 1.92954 0.902377 1 -7.29089 0.00530241 4
55 1 21.3835 1.75763 1.82288 -1.83725 -1.08623 -0.32629 1 -7.33099 0.00290166 4
57 1 17.8286 0 0 0 0 0 1 -3.3465 0 2
58 1 17.8551 1.78564 1.79138 -0.0573485 0.0675685 -3.10853 1 -7.31834 0.00601935 4
59 1 19.6114 1.78286 0 0 0 0 1 -3.33507 0 2
60 1 18.72 0.891429 0.891429 0 0 0 1 -7.03049 0 4
61 1 18.7783 2.67781 2.71324 2.74179 -1.55695 -5.66448 1 -7.3339 0.0261593 4
62 1 20.5016 0.89404 2.71049 6.10793 1.642 2.71039 1 -7.35233 0.0294714 4
63 1 20.5029 2.67429 0.891429 0 0 0 1 -6.99572 0 4
64 1 17.8286 3.56572 0 0 0 0 1 -3.33173 0 2
65 1 19.6699 3.5524 1.8057 -4.20493 0.579356 1.07398 1 -7.3377 0.0119322 4
66 1 19.6092 1.76197 3.63463 -2.18116 -2.45213 -2.96391 1 -7.36091 0.0121716 4
67 1 17.892 3.55807 3.61227 -6.63125 1.48555 -1.39519 1 -7.25755 0.0299555 4
68 1 19.6238 0.0193087 1.76133 -2.20862 2.27498 -2.1201 1 -7.323 0.00905528 4
349 1 17.8475 0.0113348 3.59247 -0.786362 -10.3178 0.442136 1 -7.36863 0.0667684 4
69 1 1.78286 5.34857 0 0 0 0 1 -3.35743 0 2
70 1 0.891429 4.45714 0.891429 0 0 0 1 -6.95948 0 4
71 1 0.884942 6.25451 2.69749 1.17565 7.73338 12.0896 1 -7.28549 0.129057 4
72 1 2.67959 4.45895 2.68986 4.72565 7.81014 0.559195 1 -7.37739 0.0520614 4
73 1 2.67429 6.24 0.891429 0 0 0 1 -7.01416 0 4
74 1 3.5523 5.35695 1.78744 11.6904 7.64702 -2.6927 1 -7.38006 0.125974 4
75 1 0 7.13143 0 0 0 0 1 -3.35995 0 2
76 1 1.80985 7.17753 1.78385 -2.13496 -1.47742 -2.936 1 -7.30042 0.00956105 4
77 1 0.891429 8.02286 0.891429 0 0 0 1 -7.02871 0 4
78 1 2.70991 8.05919 2.67266 2.02235 5.20311 -3.14317 1 -7.35016 0.0255455 4
79 1 3.56572 7.13143 0 0 0 0 1 -3.31817 0 2
80 1 1.83778 5.37097 3.62268 1.20582 4.13221 1.85384 1 -7.28701 0.0136721 4
81 1 3.60937 7.14287 3.58541 -3.74348 -0.261942 9.55578 1 -7.32577 0.0656007 4
128 1 0.00639417 5.36034 1.8281 0.40993 8.47411 4.57987 1 -7.35876 0.0578569 4
83 1 5.34857 5.34857 0 0 0 0 1 -3.35194 0 2
84 1 4.45714 4.45714 0.891429 0 0 0 1 -6.9745 0 4
85 1 4.4739 6.2411 2.64362 2.61008 -5.95845 0.323601 1 -7.35959 0.0264035 4
86 1 6.25022 4.46585 2.65109 -6.70775 -4.69062 -1.61057 1 -7.27114 0.0433145 4
87 1 6.24 6.24 0.891429 0 0 0 1 -7.02347 0 4
88 1 7.14719 5.34712 1.79576 -2.94575 -1.00702 -3.93376 1 -7.35735 0.0156639 4
89 1 8.02286 4.45714 0.891429 0 0 0 1 -7.00751 0 4
90 1 8.01975 6.19512 2.74064 -3.69653 -8.58569 13.8115 1 -7.35004 0.173119 4
91 1 5.36468 7.13545 1.77641 -4.99328 -2.2943 -0.750284 1 -7.38907 0.0191456 4
92 1 4.45714 8.02286 0.891429 0 0 0 1 -7.01683 0 4
93 1 6.20145 7.98114 2.67996 -5.2319 5.28323 -4.02894 1 -7.33675 0.0445145 4
94 1 7.13143 7.13143 0 0 0 0 1 -3.31985 0 2
95 1 8.02286 8.02286 0.891429 0 0 0 1 -6.98383 0 4
96 1 5.32621 5.35436 3.54062 -6.16618 0.635825 -4.11027 1 -7.32212 0.0344328 4
97 1 7.12677 7.13118 3.5591 7.31056 -5.20084 -5.12394 1 -7.34489 0.0664427 4
98 1 8.91429 5.34857 0 0 0 0 1 -3.32695 0 2
99 1 9.82065 4.43559 2.6874 -11.2521 3.3425 -2.91103 1 -7.35623 0.0910341 4
100 1 9.80572 6.24 0.891429 0 0 0 1 -7.02113 0 4
101 1 10.6904 5.32264 1.78961 -7.74462 -1.22313 -4.72245 1 -7.35836 0.0521449 4
102 1 12.48 5.34857 0 0 0 0 1 -3.34858 0 2
103 1 11.5886 4.45714 0.891429 0 0 0 1 -7.02694 0 4
104 1 11.5784 6.22876 2.66826 4.09064 1.33096 -7.73914 1 -7.36084 0.0487977 4
105 1 8.95507 7.10184 1.81234 -7.20478 -3.30928 -0.436778 1 -7.26564 0.0392446 4
106 1 9.80857 8.02125 2.70463 2.41075 -4.97476 0.641822 1 -7.36897 0.0192777 4
107 1 10.6971 7.13143 0 0 0 0 1 -3.34706 0 2
108 1 12.4938 7.11179 1.81536 -0.808768 -9.14853 -3.1647 1 -7.29946 0.0587353 4
109 1 11.5886 8.02286 0.891429 0 0 0 1 -6.96034 0 4
110 1 8.90632 5.33712 3.59807 1.2947 2.69251 0.554374 1 -7.32859 0.00574696 4
111 1 12.4707 5.33797 3.5764 -4.3569 6.09587 0.37706 1 -7.33856 0.0350329 4
112 1 10.7002 7.14267 3.55708 0.577121 -2.48159 -0.242208 1 -7.38718 0.00407689 4
113 1 13.3922 4.42386 2.66167 5.93758 -10.707 2.06223 1 -7.33853 0.0959453 4
114 1 13.3714 6.24 0.891429 0 0 0 1 -7.01104 0 4
115 1 14.2484 5.36627 1.79925 -5.5854 4.07452 -6.12437 1 -7.30983 0.0530969 4
116 1 16.0457 5.34857 0 0 0 0 1 -3.33503 0 2
117 1 15.1543 4.45714 0.891429 0 0 0 1 -7.00677 0 4
118 1 15.1568 6.28716 2.63979 9.54979 -4.33888 0.234788 1 -7.26519 0.0685164 4
119 1 16.9247 4.45532 2.67005 -1.49298 4.54666 -2.16013 1 -7.30269 0.0171586 4
120 1 16.9371 6.24 0.891429 0 0 0 1 -7.01686 0 4
121 1 13.3952 8.04829 2.73419 -1.34132 2.09477 -6.9815 1 -7.26481 0.034189 4
122 1 14.2629 7.13143 0 0 0 0 1 -3.35564 0 2
123 1 16.0771 7.14851 1.75193 2.7212 -4.50528 -4.58589 1 -7.34411 0.0303326 4
124 1 15.1543 8.02286 0.891429 0 0 0 1 -7.0029 0 4
125 1 16.9669 8.05439 2.67757 -6.74942 0.669114 -4.56574 1 -7.33953 0.0416081 4
126 1 16.0462 5.31713 3.5907 -8.01197 -5.71016 8.41012 1 -7.28243 0.104274 4
127 1 14.2563 7.17227 3.56968 5.26606 -5.67446 3.37463 1 -7.33345 0.0443908 4
82 1 21.3855 7.17402 3.54754 -4.24691 -1.39013 5.05115 1 -7.26523 0.0283097 4
129 1 17.8236 5.32043 1.79474 -0.695327 -1.65377 1.86866 1 -7.36195 0.00417667 4
130 1 19.6114 5.34857 0 0 0 0 1 -3.32665 0 2
131 1 18.72 4.45714 0.891429 0 0 0 1 -6.98625 0 4
132 1 18.7076 6.21848 2.66813 2.79165 2.89849 -0.792849 1 -7.41991 0.0104712 4
133 1 20.5302 4.44209 2.69162 -6.66824 0.947125 -2.83702 1 -7.37231 0.0332445 4
134 1 20.5029 6.24 0.891429 0 0 0 1 -6.97773 0 4
135 1 17.8286 7.13143 0 0 0 0 1 -3.31363 0 2
136 1 19.5607 7.11711 1.7808 -1.79438 -4.98645 5.44984 1 -7.35145 0.0359671 4
137 1 18.72 8.02286 0.891429 0 0 0 1 -7.02514 0 4
138 1 20.4689 8.03123 2.62556 0.0568142 -0.589457 0.14006 1 -7.31244 0.000230487 4
139 1 19.6023 5.33025 3.55638 -1.59996 0.623608 11.7268 1 -7.33556 0.0874303 4
140 1 17.8353 7.09995 3.55949 1.22848 0.912997 4.9963 1 -7.33938 0.0169958 4
141 1 1.78286 8.91429 0 0 0 0 1 -3.31692 0 2
142 1 0.909781 9.80273 2.67082 5.4068 -5.42638 -0.779323 1 -7.33215 0.0369014 4
143 1 2.67429 9.80572 0.891429 0 0 0 1 -7.00339 0 4
144 1 3.54667 8.92217 1.76241 3.34891 -4.36435 3.02049 1 -7.35144 0.024515 4
145 1 0 10.6971 0 0 0 0 1 -3.33851 0 2
146 1 1.74232 10.6911 1.82751 2.16725 -0.700522 5.6483 1 -7.35607 0.0230864 4
147 1 1.78286 12.48 0 0 0 0 1 -3.33698 0 2
148 1 0.891429 11.5886 0.891429 0 0 0 1 -7.01533 0 4
149 1 2.5842 11.586 2.69214 -2.24734 -1.33099 -1.1797 1 -7.23997 0.00511247 4
150 1 3.56572 10.6971 0 0 0 0 1 -3.36092 0 2
151 1 3.58071 12.481 1.80394 0.582886 2.16717 -0.591327 1 -7.33795 0.00335241 4
152 1 1.81685 8.93747 3.58507 12.6964 0.586496 4.79668 1 -7.31783 0.114869 4
153 1 1.73643 12.4813 3.65231 1.17175 -0.598118 -2.36855 1 -7.35085 0.00456908 4
154 1 3.53514 10.7021 3.5687 2.25674 -4.11395 -2.98988 1 -7.28308 0.0192684 4
205 1 0.021523 8.88733 1.77539 7.79864 -5.71945 -1.6322 1 -7.36518 0.0598743 4
204 1 0.0274687 12.5029 1.75508 12.8013 -1.76385 -1.01066 1 -7.3165 0.104571 4
155 1 5.34857 8.91429 0 0 0 0 1 -3.32213 0 2
156 1 4.46711 9.81722 2.66023 0.826514 -3.42703 5.57802 1 -7.33602 0.0271016 4
157 1 6.24 9.80572 0.891429 0 0 0 1 -7.0037 0 4
158 1 7.11145 8.89768 1.75849 3.68461 2.92757 -5.92413 1 -7.31323 0.0356291 4
159 1 7.97916 9.78351 2.70479 0.792338 2.00705 6.35391 1 -7.32141 0.0280268 4
160 1 5.3401 10.7228 1.81531 2.26941 -7.06037 3.25597 1 -7.32697 0.0408314 4
161 1 5.34857 12.48 0 0 0 0 1 -3.33685 0 2
162 1 4.45714 11.5886 0.891429 0 0 0 1 -7.02964 0 4
163 1 6.20721 11.5953 2.76167 2.16016 0.370261 -3.25332 1 -7.34747 0.00957758 4
164 1 7.13143 10.6971 0 0 0 0 1 -3.32887 0 2
165 1 7.07632 12.4696 1.80131 4.03703 -0.609874 -0.411316 1 -7.25587 0.0104809 4
166 1 8.02286 11.5886 0.891429 0 0 0 1 -7.02457 0 4
167 1 5.33828 8.93568 3.56435 3.33428 -13.7718 -0.510497 1 -7.31349 0.125133 4
168 1 5.34829 12.5172 3.61191 -7.40255 1.53976 2.98477 1 -7.35627 0.0411284 4
169 1 7.17153 10.7025 3.56445 3.1553 2.32265 2.01818 1 -7.31973 0.0120898 4
170 1 8.91429 8.91429 0 0 0 0 1 -3.33462 0 2
171 1 9.80572 9.80572 0.891429 0 0 0 1 -6.98781 0 4
172 1 10.6878 8.94245 1.78104 -6.54138 1.03158 -3.75079 1 -7.3416 0.0360523 4
173 1 12.48 8.91429 0 0 0 0 1 -3.3376 0 2
174 1 11.6067 9.78735 2.68965 -3.68535 2.99108 3.818 1 -7.3102 0.0230954 4
175 1 8.86916 10.7388 1.78173 -4.07851 -1.94089 0.444696 1 -7.28294 0.0128214 4
176 1 8.91429 12.48 0 0 0 0 1 -3.32912 0 2
177 1 9.81573 11.5771 2.63732 3.20993 2.30367 5.972 1 -7.39404 0.0319151 4
178 1 10.6971 10.6971 0 0 0 0 1 -3.32427 0 2
179 1 10.7074 12.4449 1.81817 0.37145 2.40731 2.76874 1 -7.32218 0.00846439 4
180 1 12.4815 10.6675 1.78673 -1.72132 -3.27112 -2.50584 1 -7.32164 0.0124126 4
181 1 12.48 12.48 0 0 0 0 1 -3.34155 0 2
182 1 11.5886 11.5886 0.891429 0 0 0 1 -6.99843 0 4
183 1 8.9076 8.87726 3.58037 7.17613 -1.7609 6.98428 1 -7.34737 0.0643451 4
184 1 12.4965 8.88098 3.62708 2.25995 5.20215 0.18863 1 -7.33076 0.0200454 4
185 1 8.95207 12.4796 3.57142 -2.40838 5.3638 -2.09258 1 -7.25534 0.0242433 4
186 1 10.6827 10.6987 3.55786 1.9882 -8.88461 0.736096 1 -7.3008 0.0519297 4
187 1 12.4312 12.4803 3.54479 -3.1448 2.6022 -1.44572 1 -7.42165 0.0116713 4
188 1 13.3714 9.80572 0.891429 0 0 0 1 -7.05525 0 4
189 1 14.2847 8.9514 1.7653 1.98771 9.21487 -4.41853 1 -7.33493 0.0674636 4
190 1 16.0457 8.91429 0 0 0 0 1 -3.31586 0 2
191 1 15.1753 9.79605 2.65427 -3.83858 4.31625 -1.09885 1 -7.28068 0.0215187 4
192 1 16.9371 9.80572 0.891429 0 0 0 1 -6.99094 0 4
193 1 13.337 11.6006 2.66779 -1.04142 -4.9961 1.89474 1 -7.3623 0.018446 4
194 1 14.2629 10.6971 0 0 0 0 1 -3.33868 0 2
195 1 14.2537 12.457 1.77292 -4.20509 -3.58272 -10.4828 1 -7.39907 0.0873933 4
196 1 16.0869 10.7554 1.77152 -5.5796 0.720846 -2.89725 1 -7.3225 0.0249254 4
197 1 16.0457 12.48 0 0 0 0 1 -3.31548 0 2
198 1 15.1543 11.5886 0.891429 0 0 0 1 -7.02505 0 4
199 1 16.9702 11.6267 2.63065 -2.45533 1.17866 -1.97962 1 -7.34186 0.0070563 4
200 1 16.0595 8.90851 3.51154 1.6415 -2.01927 -0.741929 1 -7.36732 0.00455769 4
201 1 14.2243 10.6856 3.53499 6.34624 -8.08477 -1.81304 1 -7.30319 0.067798 4
202 1 16.0744 12.4567 3.57463 0.664078 -4.96264 -2.38837 1 -7.37606 0.019154 4
203 1 21.367 10.6885 3.59306 0.0343085 0.106486 -4.48454 1 -7.3016 0.0125255 4
206 1 17.8214 8.90254 1.77707 5.61576 1.98645 -10.1056 1 -7.37112 0.08565 4
207 1 19.6114 8.91429 0 0 0 0 1 -3.34553 0 2
208 1 18.6888 9.7861 2.66872 -9.42867 -1.25834 1.24067 1 -7.34444 0.0572772 4
209 1 20.5029 9.80572 0.891429 0 0 0 1 -6.99307 0 4
210 1 17.8286 10.6971 0 0 0 0 1 -3.31499 0 2
211 1 17.8327 12.4954 1.77832 6.99423 8.01722 -6.14313 1 -7.38565 0.0939447 4
212 1 19.6178 10.6849 1.78243 0.856465 -0.677058 -13.2289 1 -7.3402 0.109668 4
213 1 19.6114 12.48 0 0 0 0 1 -3.33771 0 2
214 1 18.72 11.5886 0.891429 0 0 0 1 -6.99761 0 4
215 1 20.4997 11.5969 2.69259 -3.47208 -1.62059 -7.82854 1 -7.2998 0.0472843 4
216 1 19.5531 8.87714 3.56395 4.88852 1.16116 -6.24457 1 -7.29373 0.039985 4
217 1 17.8799 10.6986 3.55086 -5.94238 4.6409 -3.64598 1 -7.31394 0.0436588 4
218 1 19.5794 12.5001 3.56353 2.77113 -0.352596 1.39299 1 -7.34843 0.00606486 4
219 1 0.89557 13.3888 2.67038 -3.51998 0.898288 -4.42751 1 -7.32572 0.0204156 4
220 1 2.67429 13.3714 0.891429 0 0 0 1 -6.99301 0 4
221 1 0 14.2629 0 0 0 0 1 -3.309 0 2
222 1 1.78312 14.256 1.76239 4.47322 -4.05146 -1.2974 1 -7.3693 0.0237189 4
223 1 1.78286 16.0457 0 0 0 0 1 -3.31276 0 2
224 1 0.891429 15.1543 0.891429 0 0 0 1 -7.05023 0 4
225 1 0.879321 16.906 2.64919 -3.55398 -2.40833 4.25654 1 -7.31578 0.022749 4
226 1 2.67965 15.1378 2.67633 -1.9244 1.42841 4.3179 1 -7.31149 0.0151797 4
227 1 2.67429 16.9371 0.891429 0 0 0 1 -7.0004 0 4
228 1 3.56572 14.2629 0 0 0 0 1 -3.33351 0 2
229 1 3.54103 16.0217 1.76541 -1.65817 -2.64873 -7.57749 1 -7.35511 0.0418169 4
230 1 1.77965 15.9968 3.56606 4.03092 0.715996 -4.20084 1 -7.31915 0.0214164 4
231 1 3.58723 14.2384 3.61927 -3.13005 2.98687 0.595118 1 -7.31835 0.0118714 4
233 1 0.00165081 16.0259 1.74474 5.61077 3.34795 0.886365 1 -7.34749 0.0270601 4
234 1 4.43361 13.3651 2.69672 -0.597794 10.6933 2.49486 1 -7.33915 0.0752683 4
235 1 6.24 13.3714 0.891429 0 0 0 1 -6.96943 0 4
236 1 7.96177 13.3691 2.7015 -0.0195124 7.55274 3.99179 1 -7.28251 0.0454238 4
237 1 5.34063 14.3097 1.80941 10.0883 0.0685929 -7.39958 1 -7.26259 0.0974298 4
238 1 5.34857 16.0457 0 0 0 0 1 -3.35572 0 2
239 1 4.45714 15.1543 0.891429 0 0 0 1 -7.02538 0 4
240 1 4.46186 16.9549 2.64465 0.445642 2.27398 -3.6309 1 -7.34708 0.0115479 4
241 1 6.2903 15.1657 2.72291 0.801759 -1.05849 7.85779 1 -7.30654 0.0395291 4
242 1 6.24 16.9371 0.891429 0 0 0 1 -7.03442 0 4
243 1 7.13143 14.2629 0 0 0 0 1 -3.33211 0 2
244 1 7.16505 16.0617 1.78069 -3.33229 1.47376 -4.0419 1 -7.35117 0.018432 4
245 1 8.02286 15.1543 0.891429 0 0 0 1 -7.00809 0 4
246 1 8.00014 16.941 2.68947 6.99809 -0.744917 -1.22505 1 -7.3547 0.0317618 4
247 1 5.36557 16.0556 3.55739 7.50202 7.94007 -2.74884 1 -7.30586 0.0789742 4
248 1 7.07732 14.261 3.60013 2.38405 1.44777 4.54872 1 -7.38897 0.0177208 4
249 1 9.80572 13.3714 0.891429 0 0 0 1 -6.98464 0 4
250 1 11.5577 13.3677 2.69626 4.36636 -5.73651 5.92853 1 -7.31731 0.0542258 4
251 1 8.87022 14.21 1.77988 -0.506561 3.99901 -2.74203 1 -7.3323 0.0147935 4
252 1 8.91429 16.0457 0 0 0 0 1 -3.34216 0 2
253 1 9.72809 15.1214 2.67547 -1.99875 -0.0901649 9.98688 1 -7.29156 0.064571 4
254 1 9.80572 16.9371 0.891429 0 0 0 1 -7.03099 0 4
255 1 10.6971 14.2629 0 0 0 0 1 -3.36308 0 2
256 1 10.6919 16.06 1.78142 -9.40072 -0.691429 -2.14305 1 -7.24253 0.0581622 4
257 1 12.4695 14.3012 1.77241 -0.125521 1.38086 5.47583 1 -7.28082 0.0198599 4
258 1 12.48 16.0457 0 0 0 0 1 -3.32208 0 2
259 1 11.5886 15.1543 0.891429 0 0 0 1 -7.01875 0 4
260 1 11.6152 16.9587 2.68437 -5.80635 -4.64522 0.759476 1 -7.3207 0.0347741 4
261 1 8.87277 16.0441 3.56496 -8.80867 -0.628351 -9.69028 1 -7.35186 0.106988 4
262 1 10.6328 14.2719 3.56882 -5.57531 -4.68857 2.80993 1 -7.30047 0.0379446 4
263 1 12.4479 16.0415 3.54459 2.64717 2.90686 -6.77938 1 -7.34848 0.0382278 4
264 1 13.3714 13.3714 0.891429 0 0 0 1 -6.98396 0 4
265 1 15.1335 13.3266 2.65754 -2.87678 7.75655 2.05657 1 -7.30795 0.0452313 4
266 1 16.9371 13.3714 0.891429 0 0 0 1 -6.99337 0 4
267 1 13.4141 15.1871 2.65052 6.85692 -8.96517 -4.83803 1 -7.29856 0.0938607 4
268 1 13.3714 16.9371 0.891429 0 0 0 1 -7.03061 0 4
269 1 14.2629 14.2629 0 0 0 0 1 -3.31946 0 2
270 1 14.2694 16.0294 1.744 -6.58993 -0.471916 4.91282 1 -7.40282 0.0421916 4
271 1 16.0083 14.2581 1.79703 -3.6375 -3.03539 1.24902 1 -7.34406 0.0149414 4
272 1 16.0457 16.0457 0 0 0 0 1 -3.3502 0 2
273 1 15.1543 15.1543 0.891429 0 0 0 1 -7.02582 0 4
274 1 15.1564 16.9352 2.64241 -0.435091 -3.82715 12.0484 1 -7.27391 0.0995883 4
275 1 16.9063 15.1818 2.6757 -3.54934 4.95964 2.16639 1 -7.30389 0.0260729 4
276 1 16.9371 16.9371 0.891429 0 0 0 1 -7.031 0 4
277 1 14.2401 14.2426 3.56233 4.23044 -5.83531 -8.15553 1 -7.32881 0.0737327 4
278 1 16.016 16.0879 3.60579 -4.716 -0.573284 -3.99809 1 -7.31963 0.023997 4
232 1 21.3946 14.2649 3.55603 4.0737 5.62474 -2.6382 1 -7.34646 0.0343534 4
279 1 18.7212 13.3771 2.65256 5.0557 2.72796 -7.30584 1 -7.36707 0.0537634 4
280 1 20.5029 13.3714 0.891429 0 0 0 1 -7.04199 0 4
281 1 17.8286 14.2629 0 0 0 0 1 -3.33013 0 2
282 1 17.7939 16.059 1.77846 6.4824 6.64754 3.22445 1 -7.35884 0.0601316 4
283 1 19.6309 14.2544 1.77625 8.83833 1.75459 -2.14533 1 -7.36094 0.0534024 4
284 1 19.6114 16.0457 0 0 0 0 1 -3.31426 0 2
285 1 18.72 15.1543 0.891429 0 0 0 1 -6.99058 0 4
286 1 18.6896 16.9333 2.69295 -4.06599 12.3919 -0.647524 1 -7.32784 0.106131 4
287 1 20.4788 15.1698 2.68751 10.03 13.2507 0.455909 1 -7.37669 0.172033 4
288 1 20.5029 16.9371 0.891429 0 0 0 1 -7.05415 0 4
289 1 17.8177 14.2942 3.56254 -1.25507 -0.0472734 0.021903 1 -7.35033 0.000982132 4
290 1 19.6111 16.0276 3.56202 -1.33983 1.29564 -2.83483 1 -7.34473 0.00716417 4
293 1 0 17.8286 0 0 0 0 1 -3.33743 0 2
294 1 1.75191 17.8243 1.77787 -1.0328 5.16645 -4.70753 1 -7.32363 0.0310713 4
295 1 1.78286 19.6114 0 0 0 0 1 -3.33709 0 2
296 1 0.891429 18.72 0.891429 0 0 0 1 -7.02749 0 4
297 1 0.882842 20.4804 2.66429 0.169248 -0.852915 2.93662 1 -7.33846 0.00583827 4
298 1 2.66295 18.7212 2.69041 5.04955 3.86414 -3.48391 1 -7.31355 0.0327191 4
299 1 2.67429 20.5029 0.891429 0 0 0 1 -7.03756 0 4
300 1 3.56572 17.8286 0 0 0 0 1 -3.3364 0 2
301 1 3.51312 19.6198 1.76958 0.232294 7.76294 9.44302 1 -7.32302 0.0930451 4
302 1 1.76649 19.6058 3.60392 2.01633 3.44833 2.54775 1 -7.33725 0.013972 4
303 1 3.60078 17.8024 3.52696 -6.52472 -1.24197 0.673558 1 -7.34299 0.0277404 4
305 1 -0.00483277 19.6229 1.78425 -6.89402 6.57959 -7.28714 1 -7.37206 0.0895801 4
304 1 0.00760934 17.8568 3.54819 -6.42062 0.493614 -3.38714 1 -7.29902 0.0329517 4
350 1 0.0201258 21.3925 3.58786 -6.13447 1.47603 16.004 1 -7.34044 0.1842 4
307 1 5.37851 17.8323 1.79054 2.99156 -5.82774 -0.872831 1 -7.40545 0.0271837 4
308 1 5.34857 19.6114 0 0 0 0 1 -3.34145 0 2
309 1 4.45714 18.72 0.891429 0 0 0 1 -6.96438 0 4
310 1 4.45121 20.5053 2.67247 -7.56646 6.16387 0.930934 1 -7.28966 0.0598221 4
311 1 6.21268 18.7148 2.67591 -5.77188 8.81917 5.39971 1 -7.36033 0.0872948 4
312 1 6.24 20.5029 0.891429 0 0 0 1 -6.98563 0 4
313 1 7.13143 17.8286 0 0 0 0 1 -3.32434 0 2
314 1 7.14392 19.6316 1.79218 0.95045 1.70937 -5.71761 1 -7.32535 0.0227288 4
315 1 8.02286 18.72 0.891429 0 0 0 1 -7.00169 0 4
316 1 7.99797 20.5509 2.70715 5.93894 6.6778 2.2846 1 -7.40047 0.0529581 4
317 1 5.337 19.6117 3.57846 -1.50256 5.11546 2.88536 1 -7.36734 0.0228747 4
318 1 7.13992 17.8732 3.57383 -1.39064 -4.5521 -1.61788 1 -7.33738 0.0157306 4
322 1 8.91303 17.8206 1.78173 -9.21787 -2.19103 -3.9482 1 -7.30291 0.0655776 4
323 1 8.91429 19.6114 0 0 0 0 1 -3.32875 0 2
324 1 9.78105 18.7665 2.66803 6.96048 2.75039 -3.6463 1 -7.35479 0.0431393 4
325 1 9.80572 20.5029 0.891429 0 0 0 1 -6.97917 0 4
326 1 10.6971 17.8286 0 0 0 0 1 -3.32595 0 2
327 1 10.6672 19.622 1.75762 -1.35799 -0.101198 -3.15566 1 -7.41271 0.00735245 4
328 1 12.496 17.8215 1.77561 -2.54215 4.19784 -6.13694 1 -7.40051 0.0384325 4
329 1 12.48 19.6114 0 0 0 0 1 -3.33892 0 2
330 1 11.5886 18.72 0.891429 0 0 0 1 -7.03258 0 4
331 1 11.5353 20.5149 2.66779 -0.834341 0.538298 0.960177 1 -7.27132 0.00118748 4
332 1 8.9137 19.6448 3.58106 -2.822 0.316501 2.61743 1 -7.39975 0.00928335 4
333 1 10.6163 17.819 3.55011 2.18953 2.16977 1.32235 1 -7.30837 0.00700263 4
334 1 12.4916 19.6424 3.57536 5.24039 -7.41943 -6.09175 1 -7.27387 0.0744541 4
335 1 16.0508 21.3831 1.76161 0.0290455 0.103287 2.72137 1 -7.33317 0.00461675 4
336 1 14.2754 21.3602 3.60031 5.94085 5.73333 -5.86746 1 -7.42288 0.0638558 4
337 1 13.4058 18.7235 2.67499 0.283424 7.20388 0.805455 1 -7.28959 0.0327552 4
338 1 13.3714 20.5029 0.891429 0 0 0 1 -6.99746 0 4
339 1 14.2629 17.8286 0 0 0 0 1 -3.33593 0 2
340 1 14.2768 19.6286 1.76578 -3.73433 -2.25892 -3.88411 1 -7.36429 0.021246 4
341 1 16.0888 17.8329 1.76297 -4.58991 -1.99561 0.829426 1 -7.35488 0.0160198 4
342 1 16.0457 19.6114 0 0 0 0 1 -3.31907 0 2
343 1 15.1543 18.72 0.891429 0 0 0 1 -7.0051 0 4
344 1 15.1645 20.5354 2.68788 -4.18277 2.8913 6.97948 1 -7.32281 0.0464133 4
345 1 16.9831 18.7392 2.68542 -0.143471 3.27555 2.87743 1 -7.3547 0.0118444 4
346 1 16.9371 20.5029 0.891429 0 0 0 1 -7.03974 0 4
347 1 14.2588 17.8179 3.58154 1.36436 2.94238 -1.52123 1 -7.30379 0.00798774 4
348 1 16.0936 19.6541 3.57471 5.90236 1.00859 6.09015 1 -7.36077 0.0454028 4
351 1 17.8286 17.8286 0 0 0 0 1 -3.32564 0 2
352 1 17.8289 19.6337 1.81958 -6.03182 -0.678812 -0.526468 1 -7.31571 0.023105 4
353 1 19.6105 17.7805 1.77954 -1.40185 5.43227 2.60775 1 -7.32757 0.0238234 4
354 1 19.6114 19.6114 0 0 0 0 1 -3.34376 0 2
355 1 18.72 18.72 0.891429 0 0 0 1 -6.9387 0 4
356 1 18.7365 20.5 2.71734 0.769615 -4.78708 4.69996 1 -7.30883 0.0283814 4
357 1 20.4443 18.738 2.66217 -1.66005 2.20155 2.2229 1 -7.30108 0.00780762 4
358 1 20.5029 20.5029 0.891429 0 0 0 1 -7.02114 0 4
359 1 17.8324 17.8721 3.53338 1.01672 2.12919 -4.02382 1 -7.37719 0.0135429 4
360 1 19.5899 19.6169 3.56981 -7.82938 1.28352 -5.96 1 -7.33131 0.0612892 4
361 1 0.895614 0.898704 4.49178 -0.559114 -0.845161 4.80366 1 -7.37206 0.0150017 4
362 1 0.939171 2.68472 6.28823 12.434 -6.45105 3.63155 1 -7.33619 0.130341 4
363 1 2.68859 0.877562 6.23533 3.109 3.98499 5.53393 1 -7.27919 0.0349619 4
364 1 2.6884 2.6903 4.48177 -5.01214 -2.19775 4.23284 1 -7.36733 0.0297947 4
365 1 3.54943 1.85732 5.31585 4.65291 -11.6668 -7.48801 1 -7.30567 0.133096 4
366 1 1.79707 3.59725 5.35397 4.41845 -13.2709 5.34502 1 -7.33645 0.139554 4
367 1 1.80514 1.79265 7.15801 -2.4103 -0.226598 3.67283 1 -7.28341 0.0120443 4
368 1 0.932958 0.866132 8.0731 -6.55087 0.315524 -0.00487143 1 -7.30909 0.0267727 4
369 1 2.65497 2.73785 8.0246 9.27677 7.35565 3.94061 1 -7.33298 0.096907 4
370 1 3.59018 3.59404 7.10471 9.10644 -1.71035 -2.04307 1 -7.39369 0.056035 4
411 1 0.0448313 1.78476 5.42216 0.292129 8.01533 2.82494 1 -7.33064 0.0450083 4
371 1 0.0181743 3.56291 7.17106 -0.950704 2.25361 -3.55206 1 -7.26901 0.011577 4
372 1 4.4469 0.919395 4.49729 0.423455 7.14217 -0.484579 1 -7.22341 0.0320081 4
373 1 4.43643 2.70406 6.24816 -1.31575 -4.01697 -0.329024 1 -7.40444 0.0111884 4
374 1 6.25906 0.930794 6.26761 8.13673 -5.05931 -0.96854 1 -7.3602 0.0577245 4
375 1 6.24603 2.71244 4.47033 -5.04935 -4.04138 1.25934 1 -7.27313 0.0270224 4
376 1 7.16658 1.79206 5.36828 -1.37379 -5.13824 -5.51152 1 -7.36274 0.0365151 4
377 1 7.97354 0.89009 4.46399 1.43982 -4.29784 -8.73923 1 -7.27772 0.0603246 4
378 1 8.05288 2.67869 6.2347 -5.73268 0.347619 1.41724 1 -7.35734 0.0217806 4
379 1 5.35841 3.57104 5.36029 1.71079 3.07704 -0.46819 1 -7.33349 0.00785138 4
380 1 5.35318 1.83934 7.13136 -2.86723 -2.33581 4.56425 1 -7.33369 0.0214796 4
381 1 4.45816 0.91346 8.03671 0.851706 -2.29263 -1.58682 1 -7.35427 0.00529036 4
382 1 6.29886 2.68074 8.03674 1.54641 11.442 -5.84558 1 -7.33041 0.104246 4
383 1 8.06855 0.87797 8.04244 13.1869 1.81672 2.74237 1 -7.38891 0.114972 4
384 1 7.20013 3.56342 7.15592 -6.27752 -3.81942 1.63406 1 -7.3381 0.03527 4
665 1 7.137 0.0227666 7.17863 4.51419 -3.12979 -2.39116 1 -7.31448 0.0223396 4
385 1 5.35975 0.0461197 5.43254 -0.752207 -0.735695 2.83957 1 -7.37822 0.00570777 4
386 1 9.81293 0.870637 6.26309 -1.81155 -0.97757 12.5164 1 -7.3858 0.100147 4
387 1 9.85647 2.69566 4.49553 -1.03031 0.759372 -1.01414 1 -7.36705 0.0016598 4
388 1 10.7203 1.79368 5.39277 -5.40294 -0.683688 4.19341 1 -7.33025 0.0294059 4
389 1 11.5967 0.904752 4.4659 -2.2225 -2.6199 9.48205 1 -7.33273 0.0633087 4
390 1 11.5932 2.65125 6.26632 0.449637 -2.16055 -0.375048 1 -7.30739 0.00311886 4
391 1 8.95656 3.59053 5.38962 3.97658 7.37594 -8.58327 1 -7.37002 0.0895611 4
392 1 12.4179 3.57058 5.36975 0.585021 1.05094 -0.814746 1 -7.2884 0.00131365 4
393 1 8.93399 1.75818 7.17194 5.27091 -1.05679 6.67261 1 -7.33071 0.0457004 4
394 1 9.79782 2.65955 8.01725 4.88098 4.81999 3.75839 1 -7.23554 0.0380811 4
395 1 12.4654 1.72171 7.18489 -0.0128634 -3.35494 0.945011 1 -7.32939 0.00756174 4
396 1 11.5861 0.857592 8.08196 -0.324232 5.7929 -5.13111 1 -7.36753 0.0373401 4
397 1 10.6933 3.59899 7.13347 -2.88998 0.458466 -5.22142 1 -7.30904 0.0222987 4
680 1 12.4877 0.00761296 5.40201 -1.27321 -1.85093 -1.14219 1 -7.33366 0.00395341 4
679 1 8.92263 0.0287943 5.36489 0.803929 4.68109 -4.26797 1 -7.35215 0.0253791 4
398 1 13.3711 0.867363 6.28276 -0.324212 -6.12542 -5.32711 1 -7.36988 0.0410826 4
399 1 13.3808 2.66081 4.50307 -3.33675 3.96841 -0.20088 1 -7.25339 0.0167573 4
400 1 14.2565 1.78593 5.41479 -1.07392 -1.8259 3.64167 1 -7.36837 0.0110474 4
401 1 15.1488 0.865676 4.48432 6.80876 0.219844 0.657095 1 -7.31983 0.029154 4
402 1 15.1685 2.68747 6.26194 -7.77185 -1.68925 -0.582073 1 -7.33482 0.0395826 4
403 1 16.9351 0.96732 6.26261 5.44136 -2.12318 2.77568 1 -7.28041 0.0260303 4
404 1 16.9427 2.65053 4.51963 -2.43016 9.18384 0.601575 1 -7.28002 0.0563983 4
405 1 16.0412 3.56719 5.39047 -2.71774 -3.91789 6.30958 1 -7.32288 0.0389308 4
406 1 13.3466 2.68257 8.00793 -0.179591 -1.24544 2.34263 1 -7.28327 0.00440135 4
407 1 16.0148 1.85869 7.16867 0.447281 4.82578 4.57848 1 -7.33444 0.0276673 4
408 1 15.1368 0.905843 8.05449 -1.01473 -0.936051 -3.60143 1 -7.301 0.00925932 4
409 1 16.9124 2.63749 8.07307 8.82864 -3.11004 5.59528 1 -7.31243 0.0740217 4
410 1 14.1761 3.58089 7.12577 7.90242 2.19611 -3.35 1 -7.33584 0.0488565 4
694 1 16.0437 0.0177278 5.36457 4.31302 -0.47936 6.02928 1 -7.33783 0.034348 4
412 1 17.853 1.79173 5.43702 2.64109 1.90076 3.07919 1 -7.32047 0.0124919 4
413 1 18.7175 0.877079 4.53102 -0.504329 -0.364412 -4.54928 1 -7.40618 0.0131227 4
414 1 18.7464 2.72848 6.27313 1.55243 3.10313 -3.57162 1 -7.38132 0.0154336 4
415 1 20.5098 0.878334 6.26988 6.42064 -2.74337 3.07088 1 -7.28421 0.0362134 4
416 1 20.4966 2.66446 4.5171 -4.91092 0.590353 3.92077 1 -7.28785 0.0247962 4
417 1 19.6304 3.60016 5.36754 -2.21689 2.13967 -5.34023 1 -7.39238 0.0236589 4
418 1 19.6211 1.82933 7.19162 0.69728 0.190034 4.31534 1 -7.27713 0.011916 4
419 1 18.7045 0.87178 8.06455 2.60845 -1.78075 5.10276 1 -7.28107 0.0224156 4
420 1 20.5243 2.67584 8.07633 4.1312 3.9847 3.03906 1 -7.3437 0.0262543 4
421 1 17.8111 3.59284 7.15605 -1.47605 -2.33362 3.95574 1 -7.27921 0.0144854 4
709 1 17.797 0.0206773 7.13562 -17.0923 6.62702 -0.53353 1 -7.3505 0.209352 4
422 1 19.5735 0.02963 5.38127 5.89324 1.51224 0.860923 1 -7.30115 0.0235018 4
423 1 0.930308 4.48906 4.45259 3.04918 6.10681 -1.76032 1 -7.38598 0.030928 4
424 1 0.900731 6.27115 6.26542 -4.84284 3.38827 9.62446 1 -7.3659 0.0793989 4
425 1 2.68164 4.48146 6.26557 9.07392 6.83522 -0.908036 1 -7.33532 0.0808412 4
426 1 2.67729 6.30494 4.49033 -5.42034 -0.241347 11.5764 1 -7.39396 0.101737 4
427 1 3.55476 5.36315 5.3417 -1.91058 -1.86869 2.5018 1 -7.25683 0.00834133 4
428 1 1.7972 7.16715 5.36601 -0.817282 -8.99687 -7.61827 1 -7.38042 0.0869216 4
429 1 0.895333 8.06436 4.50575 2.16883 1.24058 -1.55666 1 -7.34708 0.00539397 4
430 1 2.69067 8.02448 6.22237 5.51729 10.112 1.56251 1 -7.38332 0.0841115 4
431 1 1.8179 5.37432 7.15204 -3.18422 2.03863 5.2729 1 -7.37612 0.0262033 4