ITEM: TIMESTEP
49126200
ITEM: NUMBER OF ATOMS
3060
ITEM: BOX BOUNDS pp pp mm
0.0000000000000000e+00 2.1394294200000001e+01
0.0000000000000000e+00 2.1394294200000001e+01
-5.3491084073550004e-03 5.3485735499999997e+01
ITEM: ATOMS id type x y z vx vy vz c_clusts c_atom_pe c_atom_ke c_atom_coord
1 1 0 0 0 0 0 0 1 -3.32311 0 2
2 1 1.78286 1.78286 0 0 0 0 1 -3.3424 0 2
3 1 0.891429 0.891429 0.891429 0 0 0 1 -7.02399 0 4
4 1 0.895431 2.66 2.66614 -2.41156 -5.55142 5.54612 1 -7.33721 0.0419474 4
5 1 2.65421 0.909647 2.66844 -3.56488 -5.23477 -7.51845 1 -7.27697 0.0601502 4
6 1 2.67429 2.67429 0.891429 0 0 0 1 -7.00738 0 4
7 1 3.56572 0 0 0 0 0 1 -3.34673 0 2
8 1 3.58718 1.83801 1.79306 -5.77181 0.273431 -8.97224 1 -7.33395 0.0708879 4
9 1 0 3.56572 0 0 0 0 1 -3.33701 0 2
10 1 1.78297 3.57585 1.75175 -4.51735 -1.72231 -7.53851 1 -7.34384 0.0499198 4
11 1 3.56572 3.56572 0 0 0 0 1 -3.32738 0 2
12 1 1.7353 1.72458 3.56927 3.75428 3.50002 -3.26314 1 -7.31547 0.0230253 4
13 1 3.52301 3.60641 3.53261 -3.17992 -6.09792 -2.10116 1 -7.41342 0.0321865 4
292 1 1.79587 0.00968006 1.77892 5.33631 -0.933388 -3.27153 1 -7.3696 0.0249284 4
56 1 0.0268735 3.55659 3.54509 -1.08661 8.07203 -0.711237 1 -7.32045 0.0416056 4
55 1 0.0146272 1.77043 1.76968 -2.58665 8.53356 -4.0045 1 -7.34041 0.0594719 4
291 1 3.56755 0.00366719 3.58921 -8.14489 -2.49173 0.626562 1 -7.30011 0.0454001 4
14 1 5.34857 1.78286 0 0 0 0 1 -3.32898 0 2
15 1 4.45714 0.891429 0.891429 0 0 0 1 -6.96525 0 4
16 1 4.46113 2.74383 2.67548 -3.8899 1.85519 2.59706 1 -7.3483 0.0157584 4
17 1 6.202 0.917086 2.6656 7.32485 6.44964 -4.09762 1 -7.33945 0.0697377 4
18 1 6.24 2.67429 0.891429 0 0 0 1 -6.98408 0 4
19 1 7.13143 0 0 0 0 0 1 -3.35312 0 2
20 1 7.15501 1.7666 1.74996 -4.38882 -1.50078 2.95033 1 -7.29472 0.0188088 4
21 1 8.02286 0.891429 0.891429 0 0 0 1 -7.06831 0 4
22 1 7.98524 2.71154 2.6978 4.57845 3.91484 -2.31692 1 -7.31433 0.025928 4
23 1 5.35638 3.58294 1.80851 -1.86312 0.966618 7.00835 1 -7.35978 0.0333138 4
24 1 7.13143 3.56572 0 0 0 0 1 -3.32748 0 2
25 1 5.36466 1.82739 3.55984 -0.847666 4.11498 10.5914 1 -7.36887 0.0808096 4
26 1 7.11788 3.56794 3.61204 -9.88775 -0.604842 -4.04245 1 -7.37529 0.0712522 4
306 1 7.09127 0.0107417 3.56794 -4.74476 2.5557 8.14774 1 -7.31064 0.0593982 4
28 1 8.91429 1.78286 0 0 0 0 1 -3.33849 0 2
29 1 9.8598 0.90075 2.6526 -1.89265 -4.31051 3.82838 1 -7.29455 0.0229172 4
30 1 9.80572 2.67429 0.891429 0 0 0 1 -7.04119 0 4
31 1 10.6971 0 0 0 0 0 1 -3.33848 0 2
32 1 10.7123 1.78474 1.7739 -0.74284 3.51327 -7.86037 1 -7.36663 0.046483 4
33 1 12.48 1.78286 0 0 0 0 1 -3.32802 0 2
34 1 11.5886 0.891429 0.891429 0 0 0 1 -7.01287 0 4
35 1 11.5803 2.67474 2.70525 -6.31878 0.764915 -2.98681 1 -7.31793 0.0307684 4
36 1 8.92885 3.55804 1.81522 -1.7936 -4.0054 2.71811 1 -7.33376 0.0165866 4
37 1 10.6971 3.56572 0 0 0 0 1 -3.34164 0 2
38 1 12.4895 3.56039 1.77609 -1.39587 -4.64007 -8.11635 1 -7.34679 0.0556162 4
39 1 8.87763 1.76 3.58391 -3.53679 -4.35286 3.22454 1 -7.23287 0.026051 4
40 1 12.4758 1.7461 3.58249 3.97494 0.16103 -1.68905 1 -7.3805 0.0116263 4
41 1 10.6982 3.57245 3.56605 2.99623 8.45177 2.29433 1 -7.38655 0.0533256 4
319 1 10.7203 0.0526599 3.57633 -3.44995 -2.4019 -0.0156309 1 -7.36264 0.0109992 4
320 1 8.91288 0.028662 1.80583 8.62808 1.31911 -0.448225 1 -7.34399 0.0475438 4
321 1 12.4915 0.00526 1.78001 -0.869067 2.20034 7.09436 1 -7.31495 0.0348103 4
42 1 13.3657 0.908606 2.71538 -0.394988 4.63038 4.06733 1 -7.37282 0.0237391 4
43 1 13.3714 2.67429 0.891429 0 0 0 1 -7.0055 0 4
44 1 14.2629 0 0 0 0 0 1 -3.32202 0 2
45 1 14.2757 1.76907 1.79595 6.11864 3.27703 9.19861 1 -7.30549 0.0826526 4
46 1 16.0457 1.78286 0 0 0 0 1 -3.31461 0 2
47 1 15.1543 0.891429 0.891429 0 0 0 1 -7.03169 0 4
48 1 15.1882 2.6826 2.68908 -8.91765 3.18758 -3.62709 1 -7.34338 0.0640109 4
49 1 16.9269 0.85188 2.67167 -6.94277 5.11601 -4.44795 1 -7.32855 0.0586076 4
50 1 16.9371 2.67429 0.891429 0 0 0 1 -7.01854 0 4
51 1 14.2629 3.56572 0 0 0 0 1 -3.33125 0 2
52 1 16.0342 3.56459 1.76982 -6.86268 5.46776 -1.92617 1 -7.36506 0.0502317 4
53 1 16.0693 1.77631 3.55275 -7.57076 1.24732 5.0191 1 -7.33974 0.0523234 4
54 1 14.2638 3.55646 3.57348 -5.62292 -8.68798 3.49387 1 -7.37902 0.0742587 4
336 1 14.3159 0.0168277 3.54835 2.02866 6.0333 1.56916 1 -7.33653 0.0267509 4
57 1 17.8286 0 0 0 0 0 1 -3.32026 0 2
58 1 17.7766 1.75006 1.77449 -6.41324 7.8894 2.4681 1 -7.33373 0.0681332 4
59 1 19.6114 1.78286 0 0 0 0 1 -3.33734 0 2
60 1 18.72 0.891429 0.891429 0 0 0 1 -7.02337 0 4
61 1 18.6705 2.64747 2.66823 -0.655967 -2.3248 -1.81305 1 -7.34739 0.00567786 4
62 1 20.4984 0.868259 2.6638 -2.11938 3.03903 0.978783 1 -7.35447 0.00914064 4
63 1 20.5029 2.67429 0.891429 0 0 0 1 -7.00133 0 4
64 1 17.8286 3.56572 0 0 0 0 1 -3.33816 0 2
65 1 19.6079 3.55502 1.81669 0.0835267 0.047563 -1.29726 1 -7.36527 0.00105323 4
66 1 19.5636 1.76338 3.54425 -4.35804 1.74479 -0.964299 1 -7.3583 0.014295 4
67 1 17.7659 3.55997 3.52597 0.753506 3.43678 -7.31532 1 -7.35416 0.0410136 4
68 1 19.6238 0.0193087 1.76133 -2.20862 2.27498 -2.1201 1 -7.36282 0.00905528 4
69 1 1.78286 5.34857 0 0 0 0 1 -3.3355 0 2
70 1 0.891429 4.45714 0.891429 0 0 0 1 -6.99769 0 4
71 1 0.910234 6.22572 2.68744 7.77145 -8.84265 -5.84501 1 -7.33166 0.107525 4
72 1 2.65285 4.48647 2.67119 -6.91533 3.82928 2.47812 1 -7.353 0.0427147 4
73 1 2.67429 6.24 0.891429 0 0 0 1 -7.02643 0 4
74 1 3.55463 5.40111 1.77558 -0.936801 -6.19631 0.276459 1 -7.31788 0.0244914 4
75 1 0 7.13143 0 0 0 0 1 -3.34432 0 2
76 1 1.75938 7.13039 1.76252 -5.13019 -7.3185 -9.32136 1 -7.32394 0.1038 4
77 1 0.891429 8.02286 0.891429 0 0 0 1 -7.05824 0 4
78 1 2.70077 8.02046 2.67554 0.821337 8.62243 -7.33339 1 -7.32991 0.0801682 4
79 1 3.56572 7.13143 0 0 0 0 1 -3.32622 0 2
80 1 1.76273 5.34304 3.56125 -2.7247 6.37459 -3.88564 1 -7.36119 0.0393109 4
81 1 3.56983 7.14082 3.54606 3.63935 5.54947 -2.89455 1 -7.36075 0.0326275 4
128 1 -0.0106209 5.34799 1.81153 -9.79936 -4.25648 -8.58969 1 -7.33771 0.116971 4
82 1 0.0244593 7.12498 3.57381 2.93122 2.56265 -0.173793 1 -7.34236 0.00945431 4
83 1 5.34857 5.34857 0 0 0 0 1 -3.3262 0 2
84 1 4.45714 4.45714 0.891429 0 0 0 1 -6.9725 0 4
85 1 4.48745 6.20545 2.68519 -1.12011 -7.5091 2.16466 1 -7.30571 0.038794 4
86 1 6.2357 4.44388 2.72539 1.72189 11.1389 5.02019 1 -7.36797 0.0947601 4
87 1 6.24 6.24 0.891429 0 0 0 1 -6.99843 0 4
88 1 7.11257 5.34947 1.81312 -2.29131 9.08097 -8.44373 1 -7.33958 0.0989724 4
89 1 8.02286 4.45714 0.891429 0 0 0 1 -6.9594 0 4
90 1 7.98693 6.26182 2.6962 4.05948 -0.616392 -7.11765 1 -7.35415 0.0420264 4
91 1 5.36468 7.13545 1.77641 -4.99328 -2.2943 -0.750284 1 -7.32311 0.0191456 4
92 1 4.45714 8.02286 0.891429 0 0 0 1 -7.02205 0 4
93 1 6.27604 8.04222 2.66574 0.75691 -2.71143 -4.1048 1 -7.25839 0.0154201 4
94 1 7.13143 7.13143 0 0 0 0 1 -3.35703 0 2
95 1 8.02286 8.02286 0.891429 0 0 0 1 -7.01026 0 4
96 1 5.34152 5.31616 3.615 3.93465 0.519 -1.99353 1 -7.34482 0.0122774 4
97 1 7.12268 7.08346 3.59802 -4.67857 -4.28805 5.93767 1 -7.33259 0.0470133 4
98 1 8.91429 5.34857 0 0 0 0 1 -3.34279 0 2
99 1 9.79632 4.48506 2.69275 -0.342791 1.92279 -0.541094 1 -7.36267 0.00255656 4
100 1 9.80572 6.24 0.891429 0 0 0 1 -6.99797 0 4
101 1 10.734 5.34568 1.79305 2.56975 0.920457 -4.78232 1 -7.33454 0.0188728 4
102 1 12.48 5.34857 0 0 0 0 1 -3.33659 0 2
103 1 11.5886 4.45714 0.891429 0 0 0 1 -7.05029 0 4
104 1 11.6175 6.29942 2.66283 3.64242 0.336679 1.25525 1 -7.36271 0.00930913 4
105 1 8.91391 7.12399 1.76608 -5.27272 -8.24844 -0.446919 1 -7.35817 0.0597766 4
106 1 9.79719 7.99925 2.69589 -2.96044 -3.95471 -8.83529 1 -7.31372 0.0637777 4
107 1 10.6971 7.13143 0 0 0 0 1 -3.31608 0 2
108 1 12.4848 7.1391 1.79238 5.86907 2.10226 -1.46883 1 -7.38946 0.0255338 4
109 1 11.5886 8.02286 0.891429 0 0 0 1 -6.9565 0 4
110 1 8.89242 5.39185 3.58072 -5.37644 -8.06475 0.629015 1 -7.313 0.0587209 4
111 1 12.4789 5.42217 3.5378 3.53915 1.69891 -3.21757 1 -7.20546 0.0160366 4
112 1 10.6922 7.13562 3.61073 -1.35988 -1.15358 -3.12418 1 -7.35024 0.00805451 4
113 1 13.3927 4.40251 2.68192 -1.68275 -0.044618 3.68041 1 -7.25553 0.0101947 4
114 1 13.3714 6.24 0.891429 0 0 0 1 -7.04514 0 4
115 1 14.251 5.36597 1.79371 -2.01716 3.01251 -11.9886 1 -7.22539 0.0976398 4
116 1 16.0457 5.34857 0 0 0 0 1 -3.32956 0 2
117 1 15.1543 4.45714 0.891429 0 0 0 1 -6.99262 0 4
118 1 15.2165 6.2758 2.68947 -3.2022 1.3561 4.59151 1 -7.21822 0.020649 4
119 1 16.9266 4.43825 2.64587 -2.47948 -5.18078 2.65085 1 -7.35215 0.0249066 4
120 1 16.9371 6.24 0.891429 0 0 0 1 -7.04441 0 4
121 1 13.3636 8.07577 2.65113 4.43841 -5.24553 -2.87429 1 -7.34468 0.0345301 4
122 1 14.2629 7.13143 0 0 0 0 1 -3.34974 0 2
123 1 16.0771 7.14851 1.75193 2.7212 -4.50528 -4.58589 1 -7.3619 0.0303326 4
124 1 15.1543 8.02286 0.891429 0 0 0 1 -7.02951 0 4
125 1 16.916 8.05139 2.71034 1.82521 -3.3151 -1.70047 1 -7.30067 0.0107138 4
126 1 16.0148 5.32151 3.59565 0.73854 3.32028 -5.06783 1 -7.31826 0.023187 4
127 1 14.2549 7.1693 3.57241 10.8814 -2.16858 3.61439 1 -7.24361 0.0847571 4
129 1 17.8021 5.33172 1.75974 -2.7178 1.25007 -12.5534 1 -7.41634 0.103657 4
130 1 19.6114 5.34857 0 0 0 0 1 -3.33186 0 2
131 1 18.72 4.45714 0.891429 0 0 0 1 -6.99554 0 4
132 1 18.6642 6.22781 2.64095 -0.987915 1.89896 -0.950168 1 -7.35157 0.00341391 4
133 1 20.4858 4.43736 2.69068 -1.86325 3.59447 0.59573 1 -7.33043 0.0104237 4
134 1 20.5029 6.24 0.891429 0 0 0 1 -6.98535 0 4
135 1 17.8286 7.13143 0 0 0 0 1 -3.31364 0 2
136 1 19.5607 7.11711 1.7808 -1.79438 -4.98645 5.44984 1 -7.3297 0.0359671 4
137 1 18.72 8.02286 0.891429 0 0 0 1 -7.02496 0 4
138 1 20.5029 8.02145 2.63493 0.213935 4.56484 -2.89677 1 -7.33159 0.0182214 4
139 1 19.5874 5.34685 3.59689 6.68477 1.27656 -1.48308 1 -7.2578 0.0301972 4
140 1 17.8237 7.14869 3.57218 -1.43385 9.99874 -1.55855 1 -7.33067 0.0650185 4
141 1 1.78286 8.91429 0 0 0 0 1 -3.34405 0 2
142 1 0.867089 9.7848 2.62364 0.396493 -3.89451 4.03615 1 -7.33777 0.0196779 4
143 1 2.67429 9.80572 0.891429 0 0 0 1 -6.99894 0 4
144 1 3.54667 8.92217 1.76241 3.34891 -4.36435 3.02049 1 -7.34538 0.024515 4
145 1 0 10.6971 0 0 0 0 1 -3.34987 0 2
146 1 1.7843 10.7186 1.81322 -1.15446 4.86803 -5.17254 1 -7.33462 0.0322328 4
147 1 1.78286 12.48 0 0 0 0 1 -3.32147 0 2
148 1 0.891429 11.5886 0.891429 0 0 0 1 -7.01685 0 4
149 1 2.6515 11.6082 2.70679 5.32801 -2.48272 3.71498 1 -7.37878 0.030096 4
150 1 3.56572 10.6971 0 0 0 0 1 -3.33834 0 2
151 1 3.58356 12.4773 1.79133 -4.67416 -7.7389 3.53603 1 -7.28321 0.0586586 4
152 1 1.77432 8.89753 3.57903 -3.26665 3.06269 6.39797 1 -7.2974 0.0379587 4
153 1 1.73571 12.4746 3.55572 2.74544 0.128208 3.56747 1 -7.34314 0.0126233 4
154 1 3.55078 10.701 3.53741 0.731742 -1.79336 0.0598471 1 -7.30286 0.00233733 4
205 1 0.021523 8.88733 1.77539 7.79864 -5.71945 -1.6322 1 -7.39257 0.0598743 4
204 1 0.0274687 12.5029 1.75508 12.8013 -1.76385 -1.01066 1 -7.2907 0.104571 4
155 1 5.34857 8.91429 0 0 0 0 1 -3.33661 0 2
156 1 4.44412 9.84408 2.64834 1.51064 0.435895 -2.09843 1 -7.33834 0.00427946 4
157 1 6.24 9.80572 0.891429 0 0 0 1 -6.93627 0 4
158 1 7.21319 8.95091 1.79695 -5.50046 0.913772 5.08131 1 -7.31666 0.0354221 4
159 1 8.05885 9.85335 2.6901 8.03578 -2.17883 -3.22967 1 -7.31395 0.0496396 4
160 1 5.30703 10.7197 1.77521 8.69598 0.532964 -0.140876 1 -7.36534 0.0472571 4
161 1 5.34857 12.48 0 0 0 0 1 -3.32403 0 2
162 1 4.45714 11.5886 0.891429 0 0 0 1 -7.04161 0 4
163 1 6.22418 11.5794 2.62221 4.10608 0.873923 0.654969 1 -7.34042 0.0112364 4
164 1 7.13143 10.6971 0 0 0 0 1 -3.30673 0 2
165 1 7.12435 12.4517 1.76865 1.25104 -1.69669 6.10399 1 -7.36325 0.0259568 4
166 1 8.02286 11.5886 0.891429 0 0 0 1 -7.03714 0 4
167 1 5.35216 8.88679 3.5561 4.18176 7.49314 7.96877 1 -7.30906 0.0853568 4
168 1 5.32977 12.4825 3.55083 -2.18195 -1.83841 1.11331 1 -7.3414 0.00583844 4
169 1 7.12072 10.6907 3.57846 -1.89912 1.14551 10.0357 1 -7.30112 0.0657492 4
170 1 8.91429 8.91429 0 0 0 0 1 -3.30174 0 2
171 1 9.80572 9.80572 0.891429 0 0 0 1 -6.98839 0 4
172 1 10.6355 8.91034 1.79377 -11.8038 1.47086 -3.91203 1 -7.32286 0.0975945 4
173 1 12.48 8.91429 0 0 0 0 1 -3.35725 0 2
174 1 11.5771 9.83164 2.67727 -5.59073 -2.13637 -0.189196 1 -7.30541 0.0223178 4
175 1 8.86916 10.7388 1.78173 -4.07851 -1.94089 0.444696 1 -7.33037 0.0128214 4
176 1 8.91429 12.48 0 0 0 0 1 -3.3492 0 2
177 1 9.77325 11.6102 2.67792 -4.84949 -2.10702 2.17079 1 -7.316 0.0203343 4
178 1 10.6971 10.6971 0 0 0 0 1 -3.34023 0 2
179 1 10.6614 12.4868 1.79208 4.09677 -10.5756 -4.2753 1 -7.35747 0.091438 4
180 1 12.4901 10.7048 1.77251 -2.90696 -2.82457 -0.682059 1 -7.38051 0.0105151 4
181 1 12.48 12.48 0 0 0 0 1 -3.3259 0 2
182 1 11.5886 11.5886 0.891429 0 0 0 1 -6.98577 0 4
183 1 8.90039 8.91211 3.61746 -3.23086 -5.97936 2.79404 1 -7.31662 0.0336096 4
184 1 12.4861 8.9561 3.56895 -5.46569 -1.33021 2.19983 1 -7.33451 0.0227077 4
185 1 8.88031 12.4775 3.56381 -5.57764 -0.495635 1.86124 1 -7.31216 0.0216729 4
186 1 10.6946 10.715 3.58167 -4.7056 -0.794235 -2.59051 1 -7.36733 0.0183517 4
187 1 12.4381 12.5076 3.57316 -0.646394 4.44272 6.52206 1 -7.3913 0.0390216 4
188 1 13.3714 9.80572 0.891429 0 0 0 1 -7.01874 0 4
189 1 14.2855 8.95706 1.78853 -1.62155 -2.55019 2.76459 1 -7.39459 0.0104417 4
190 1 16.0457 8.91429 0 0 0 0 1 -3.31762 0 2
191 1 15.1259 9.83845 2.68282 3.0441 -2.69958 3.1661 1 -7.3182 0.0165431 4
192 1 16.9371 9.80572 0.891429 0 0 0 1 -7.0137 0 4
193 1 13.3341 11.5934 2.66679 -3.68104 -2.08359 -3.45257 1 -7.33043 0.0185555 4
194 1 14.2629 10.6971 0 0 0 0 1 -3.33097 0 2
195 1 14.2652 12.4542 1.76473 -8.22107 2.13085 -2.16677 1 -7.30273 0.0478156 4
196 1 16.0869 10.7554 1.77152 -5.5796 0.720846 -2.89725 1 -7.30122 0.0249254 4
197 1 16.0457 12.48 0 0 0 0 1 -3.33469 0 2
198 1 15.1543 11.5886 0.891429 0 0 0 1 -7.02725 0 4
199 1 16.9627 11.6226 2.67643 8.61693 0.104161 1.8709 1 -7.40512 0.0484015 4
200 1 16.0661 8.94746 3.58514 -0.722902 -5.11335 14.8398 1 -7.35034 0.15367 4
201 1 14.2684 10.7517 3.56046 4.76554 -2.86208 8.02746 1 -7.26397 0.0593434 4
202 1 16.0959 12.5011 3.54002 6.64254 10.1368 -2.89482 1 -7.34553 0.0966361 4
203 1 21.374 10.653 3.53544 2.38544 -4.53292 -3.76389 1 -7.2737 0.0251489 4
206 1 17.8227 8.90302 1.77619 -6.52311 4.27534 1.36344 1 -7.33666 0.039019 4
207 1 19.6114 8.91429 0 0 0 0 1 -3.33754 0 2
208 1 18.6818 9.75919 2.64341 8.49626 9.16429 -8.02303 1 -7.31678 0.13727 4
209 1 20.5029 9.80572 0.891429 0 0 0 1 -7.00294 0 4
210 1 17.8286 10.6971 0 0 0 0 1 -3.31363 0 2
211 1 17.8454 12.563 1.80097 0.570976 2.07535 -6.22279 1 -7.29356 0.026986 4
212 1 19.6256 10.6525 1.73965 -0.717332 1.11762 0.089659 1 -7.28235 0.00110274 4
213 1 19.6114 12.48 0 0 0 0 1 -3.31772 0 2
214 1 18.72 11.5886 0.891429 0 0 0 1 -6.92386 0 4
215 1 20.4865 11.5842 2.66808 -0.627844 6.64358 -0.708982 1 -7.277 0.0280303 4
216 1 19.6053 8.90012 3.52336 -0.872673 5.43891 -0.955017 1 -7.30762 0.0194541 4
217 1 17.8667 10.7224 3.52078 0.0559897 1.00003 -0.461176 1 -7.34367 0.000756793 4
218 1 19.6334 12.469 3.57547 -1.65552 1.30359 1.36011 1 -7.4037 0.00391506 4
219 1 0.870036 13.4099 2.69703 -1.79891 1.63475 6.93374 1 -7.31648 0.0336018 4
220 1 2.67429 13.3714 0.891429 0 0 0 1 -7.02516 0 4
221 1 0 14.2629 0 0 0 0 1 -3.30482 0 2
222 1 1.78312 14.256 1.76239 4.47322 -4.05146 -1.2974 1 -7.31874 0.0237189 4
223 1 1.78286 16.0457 0 0 0 0 1 -3.32329 0 2
224 1 0.891429 15.1543 0.891429 0 0 0 1 -7.03693 0 4
225 1 0.880332 16.9198 2.65722 -1.05291 1.20568 -0.426103 1 -7.35638 0.00170784 4
226 1 2.66853 15.1714 2.67775 1.91014 -1.71529 -0.763288 1 -7.32388 0.00446494 4
227 1 2.67429 16.9371 0.891429 0 0 0 1 -7.01215 0 4
228 1 3.56572 14.2629 0 0 0 0 1 -3.3171 0 2
229 1 3.53326 16.0844 1.73209 0.115735 12.2202 -2.25794 1 -7.32397 0.0961313 4
230 1 1.77299 16.0338 3.54667 -4.78002 5.25941 2.26744 1 -7.38023 0.0346388 4
231 1 3.51328 14.2465 3.54091 -7.10035 -6.08257 0.750663 1 -7.33772 0.0547586 4
233 1 0.00165081 16.0259 1.74474 5.61077 3.34795 0.886365 1 -7.3528 0.0270601 4
232 1 0.00109686 14.2664 3.63622 -6.4881 -0.444348 -3.77085 1 -7.40904 0.0351747 4
234 1 4.46583 13.4031 2.69896 7.94367 -2.7029 -0.277351 1 -7.32966 0.0438714 4
235 1 6.24 13.3714 0.891429 0 0 0 1 -7.00944 0 4
236 1 8.03568 13.3482 2.67811 -0.815506 -4.88573 -4.00412 1 -7.35452 0.0252508 4
237 1 5.33075 14.2664 1.76086 -0.210146 -2.25666 1.89449 1 -7.42789 0.00543114 4
238 1 5.34857 16.0457 0 0 0 0 1 -3.33645 0 2
239 1 4.45714 15.1543 0.891429 0 0 0 1 -7.01354 0 4
240 1 4.47148 16.939 2.64103 4.8776 -6.44884 -0.212088 1 -7.28836 0.0407214 4
241 1 6.24297 15.1292 2.64035 -6.91216 1.1668 -2.19659 1 -7.28947 0.0335889 4
242 1 6.24 16.9371 0.891429 0 0 0 1 -6.99018 0 4
243 1 7.13143 14.2629 0 0 0 0 1 -3.34384 0 2
244 1 7.16505 16.0617 1.78069 -3.33229 1.47376 -4.0419 1 -7.28108 0.018432 4
245 1 8.02286 15.1543 0.891429 0 0 0 1 -6.97492 0 4
246 1 8.05127 16.9562 2.69243 2.18837 6.66372 -1.90341 1 -7.39415 0.0328748 4
247 1 5.41523 16.0667 3.52964 -0.475342 -2.50322 6.24362 1 -7.27294 0.0283048 4
248 1 7.15496 14.2355 3.53202 4.8902 -4.03651 -2.71409 1 -7.36177 0.0296111 4
249 1 9.80572 13.3714 0.891429 0 0 0 1 -7.03365 0 4
250 1 11.5791 13.3705 2.64637 1.09416 -11.1114 0.217574 1 -7.3643 0.0776215 4
251 1 8.94889 14.2417 1.77549 3.30227 8.65056 0.790791 1 -7.28971 0.0537543 4
252 1 8.91429 16.0457 0 0 0 0 1 -3.32061 0 2
253 1 9.80214 15.2054 2.67526 2.02103 9.63759 -5.15156 1 -7.35649 0.0768735 4
254 1 9.80572 16.9371 0.891429 0 0 0 1 -7.02311 0 4
255 1 10.6971 14.2629 0 0 0 0 1 -3.34991 0 2
256 1 10.6919 16.06 1.78142 -9.40072 -0.691429 -2.14305 1 -7.37954 0.0581622 4
257 1 12.4695 14.3012 1.77241 -0.125521 1.38086 5.47583 1 -7.34693 0.0198599 4
258 1 12.48 16.0457 0 0 0 0 1 -3.32208 0 2
259 1 11.5886 15.1543 0.891429 0 0 0 1 -7.02504 0 4
260 1 11.6051 16.9409 2.64911 -7.0164 1.63035 5.04909 1 -7.37939 0.0481641 4
261 1 8.87994 16.0423 3.55301 -2.38419 1.33873 0.0662395 1 -7.45604 0.00465634 4
262 1 10.687 14.2837 3.49481 5.73656 -3.14831 0.627751 1 -7.27162 0.0268976 4
263 1 12.4891 16.0901 3.54816 6.02286 0.51871 10.9479 1 -7.27578 0.0973479 4
264 1 13.3714 13.3714 0.891429 0 0 0 1 -6.96745 0 4
265 1 15.1578 13.4012 2.68602 5.43449 -1.54481 -0.555623 1 -7.34283 0.0200601 4
266 1 16.9371 13.3714 0.891429 0 0 0 1 -7.0427 0 4
267 1 13.3794 15.1753 2.67068 -1.79224 5.22333 4.02672 1 -7.385 0.0290734 4
268 1 13.3714 16.9371 0.891429 0 0 0 1 -7.02147 0 4
269 1 14.2629 14.2629 0 0 0 0 1 -3.31239 0 2
270 1 14.2694 16.0294 1.744 -6.58993 -0.471916 4.91282 1 -7.30788 0.0421916 4
271 1 16.0464 14.2408 1.76289 0.0885215 4.24544 -0.180212 1 -7.31637 0.0112436 4
272 1 16.0457 16.0457 0 0 0 0 1 -3.33968 0 2
273 1 15.1543 15.1543 0.891429 0 0 0 1 -7.04162 0 4
274 1 15.1661 16.9878 2.66101 -0.015444 0.324804 -2.19667 1 -7.30337 0.00306925 4
275 1 16.9472 15.1544 2.68314 -0.742373 2.17194 -6.78271 1 -7.32189 0.031914 4
276 1 16.9371 16.9371 0.891429 0 0 0 1 -7.06732 0 4
277 1 14.2834 14.2745 3.53285 2.50379 2.73463 1.41731 1 -7.35307 0.00980693 4
278 1 16.0468 16.0565 3.54759 5.77894 -1.62344 -7.07945 1 -7.2617 0.0536222 4
279 1 18.7613 13.3882 2.67208 -0.0497586 -2.08647 2.96282 1 -7.37141 0.00817506 4
280 1 20.5029 13.3714 0.891429 0 0 0 1 -7.01531 0 4
281 1 17.8286 14.2629 0 0 0 0 1 -3.31902 0 2
282 1 17.7939 16.059 1.77846 6.4824 6.64754 3.22445 1 -7.33902 0.0601316 4
283 1 19.6214 14.2727 1.76894 6.84172 -6.69454 5.50229 1 -7.32674 0.0758745 4
284 1 19.6114 16.0457 0 0 0 0 1 -3.31337 0 2
285 1 18.72 15.1543 0.891429 0 0 0 1 -7.01076 0 4
286 1 18.6987 16.931 2.67735 4.85588 1.56008 0.439188 1 -7.40459 0.0163115 4
287 1 20.5259 15.1819 2.7086 0.944909 -11.085 4.12995 1 -7.26346 0.0876541 4
288 1 20.5029 16.9371 0.891429 0 0 0 1 -7.03924 0 4
289 1 17.8806 14.2729 3.58367 2.02114 2.27312 -2.92439 1 -7.35858 0.0110818 4
290 1 19.5876 16.0489 3.56216 -6.19086 10.9812 9.3374 1 -7.35297 0.15318 4
293 1 0 17.8286 0 0 0 0 1 -3.34203 0 2
294 1 1.75191 17.8243 1.77787 -1.0328 5.16645 -4.70753 1 -7.36149 0.0310713 4
295 1 1.78286 19.6114 0 0 0 0 1 -3.33366 0 2
296 1 0.891429 18.72 0.891429 0 0 0 1 -7.01375 0 4
297 1 0.914573 20.5015 2.68224 4.85785 -2.89987 0.390421 1 -7.34236 0.0200175 4
298 1 2.64832 18.6874 2.60317 3.70376 2.87499 15.9966 1 -7.31764 0.172957 4
299 1 2.67429 20.5029 0.891429 0 0 0 1 -7.03257 0 4
300 1 3.56572 17.8286 0 0 0 0 1 -3.32829 0 2
301 1 3.51312 19.6198 1.76958 0.232294 7.76294 9.44302 1 -7.35337 0.0930451 4
302 1 1.78549 19.6234 3.54868 6.17816 -0.30456 1.16484 1 -7.34062 0.0246601 4
303 1 3.53142 17.7998 3.52297 -5.16741 1.44825 7.89485 1 -7.35249 0.0567206 4
305 1 0.0178222 19.6226 1.77904 -0.991319 -2.35967 -2.28986 1 -7.32856 0.00734103 4
304 1 0.00535802 17.8216 3.54903 1.3099 -7.87793 -1.05511 1 -7.39229 0.0403898 4
27 1 5.33125 21.3738 1.80127 -5.78738 -0.515898 6.16765 1 -7.33461 0.0446901 4
307 1 5.35099 17.8412 1.81367 -0.976379 -0.590622 -0.146958 1 -7.30848 0.000823934 4
308 1 5.34857 19.6114 0 0 0 0 1 -3.33486 0 2
309 1 4.45714 18.72 0.891429 0 0 0 1 -6.96487 0 4
310 1 4.39937 20.4984 2.69887 6.48745 -0.545719 -2.48529 1 -7.33533 0.030226 4
311 1 6.21981 18.7784 2.68827 1.22352 1.36475 0.41833 1 -7.34871 0.00219999 4
312 1 6.24 20.5029 0.891429 0 0 0 1 -7.02842 0 4
313 1 7.13143 17.8286 0 0 0 0 1 -3.31864 0 2
314 1 7.11347 19.6281 1.77353 -3.31261 3.56366 2.57629 1 -7.33308 0.0188659 4
315 1 8.02286 18.72 0.891429 0 0 0 1 -7.03231 0 4
316 1 8.02288 20.5394 2.71432 1.5073 1.25771 -2.34763 1 -7.32312 0.00582911 4
317 1 5.31214 19.6063 3.61865 -1.48041 -0.614554 -1.82754 1 -7.34283 0.00367803 4
318 1 7.11226 17.8475 3.53209 -7.89595 3.2059 9.25042 1 -7.32614 0.0984641 4
322 1 8.91303 17.8206 1.78173 -9.21787 -2.19103 -3.9482 1 -7.3741 0.0655776 4
323 1 8.91429 19.6114 0 0 0 0 1 -3.33393 0 2
324 1 9.80248 18.714 2.65203 2.3347 -7.55576 -2.22259 1 -7.27438 0.0420015 4
325 1 9.80572 20.5029 0.891429 0 0 0 1 -6.995 0 4
326 1 10.6971 17.8286 0 0 0 0 1 -3.32595 0 2
327 1 10.6672 19.622 1.75762 -1.35799 -0.101198 -3.15566 1 -7.35073 0.00735245 4
328 1 12.496 17.8215 1.77561 -2.54215 4.19784 -6.13694 1 -7.35636 0.0384325 4
329 1 12.48 19.6114 0 0 0 0 1 -3.33529 0 2
330 1 11.5886 18.72 0.891429 0 0 0 1 -7.00382 0 4
331 1 11.5513 20.5333 2.69058 5.81922 2.72022 -1.82961 1 -7.30783 0.0277667 4
332 1 8.8739 19.6465 3.59234 -2.86962 6.12498 -0.202655 1 -7.30055 0.0285016 4
333 1 10.7067 17.82 3.56213 7.49172 0.856524 5.9082 1 -7.28557 0.0571177 4
334 1 12.4561 19.6028 3.53749 -4.48656 2.61762 2.22282 1 -7.2832 0.0198691 4
335 1 16.0508 21.3831 1.76161 0.0290455 0.103287 2.72137 1 -7.34106 0.00461675 4
337 1 13.3734 18.7538 2.69822 4.07163 6.60375 -0.865766 1 -7.33711 0.037929 4
338 1 13.3714 20.5029 0.891429 0 0 0 1 -7.04538 0 4
339 1 14.2629 17.8286 0 0 0 0 1 -3.33593 0 2
340 1 14.2768 19.6286 1.76578 -3.73433 -2.25892 -3.88411 1 -7.37051 0.021246 4
341 1 16.0888 17.8329 1.76297 -4.58991 -1.99561 0.829426 1 -7.34304 0.0160198 4
342 1 16.0457 19.6114 0 0 0 0 1 -3.3011 0 2
343 1 15.1543 18.72 0.891429 0 0 0 1 -7.00798 0 4
344 1 15.1371 20.513 2.67283 2.69751 -3.88185 -5.19611 1 -7.34607 0.0307136 4
345 1 16.9365 18.7464 2.64565 -2.93077 0.995527 -0.277922 1 -7.3603 0.00601124 4
346 1 16.9371 20.5029 0.891429 0 0 0 1 -7.0511 0 4
347 1 14.2726 17.8542 3.57181 5.45873 -10.0137 -2.35822 1 -7.3741 0.0844212 4
348 1 16.0431 19.6121 3.56595 0.0773317 -1.0857 -0.385758 1 -7.37964 0.000830033 4
350 1 21.3778 21.3592 3.58393 7.15173 3.25571 -6.04749 1 -7.35746 0.0611964 4
349 1 17.855 21.3369 3.57423 3.06924 -0.781037 -1.09639 1 -7.31083 0.00699131 4
351 1 17.8286 17.8286 0 0 0 0 1 -3.30809 0 2
352 1 17.8061 19.6067 1.74484 5.96212 0.355831 3.78243 1 -7.36217 0.031109 4
353 1 19.6105 17.7805 1.77954 -1.40185 5.43227 2.60775 1 -7.34581 0.0238234 4
354 1 19.6114 19.6114 0 0 0 0 1 -3.34586 0 2
355 1 18.72 18.72 0.891429 0 0 0 1 -6.98802 0 4
356 1 18.7432 20.4793 2.6384 2.01626 -2.57989 2.5522 1 -7.34056 0.0107274 4
357 1 20.5173 18.6866 2.68582 7.75562 0.0792182 3.59519 1 -7.3401 0.0454877 4
358 1 20.5029 20.5029 0.891429 0 0 0 1 -7.01513 0 4
359 1 17.8433 17.8352 3.54013 -0.407166 -0.929861 5.70955 1 -7.32656 0.0209318 4
360 1 19.6166 19.5858 3.49729 2.3382 -3.93561 4.12146 1 -7.32256 0.0236165 4
361 1 0.87568 0.820311 4.46929 3.12459 -6.14041 -0.144029 1 -7.34387 0.0295581 4
362 1 0.880638 2.69456 6.25165 -2.32401 0.649734 -0.840456 1 -7.35899 0.00406415 4
363 1 2.64254 0.929433 6.26407 1.41479 -0.715844 -2.22408 1 -7.36228 0.00464367 4
364 1 2.65187 2.64638 4.43235 6.64508 9.00771 -1.39331 1 -7.26709 0.0791958 4
365 1 3.56111 1.75376 5.38648 5.56934 8.52367 3.34112 1 -7.27677 0.0714754 4
366 1 1.77046 3.50503 5.33237 -2.14284 0.611073 1.60699 1 -7.27854 0.0046978 4
367 1 1.75895 1.80711 7.12568 7.36714 9.96316 -0.721 1 -7.38774 0.0958905 4
368 1 0.876525 0.911612 8.02145 -3.66887 5.78674 -11.1077 1 -7.37561 0.106016 4
369 1 2.69759 2.65842 8.03428 5.49695 -1.60116 1.53228 1 -7.30855 0.0218646 4
370 1 3.53636 3.53808 7.17587 -5.89036 -2.76014 1.71839 1 -7.38788 0.0281757 4
651 1 3.53527 0.0257764 7.15362 4.76285 -6.5357 -0.223168 1 -7.29567 0.0407377 4
710 1 0.00950212 0.00578876 7.1297 -0.429327 -1.35123 -0.957943 1 -7.37143 0.00182234 4
372 1 4.45407 0.931229 4.50026 5.19243 4.15713 -5.61229 1 -7.35453 0.047143 4
373 1 4.40866 2.71674 6.28003 -4.98357 -4.7794 -0.995052 1 -7.29367 0.0302927 4
374 1 6.23407 0.891854 6.24734 4.07846 2.03772 -5.94475 1 -7.34977 0.0349344 4
375 1 6.26816 2.69223 4.45762 6.6268 -9.1064 -0.45402 1 -7.35666 0.0790775 4
376 1 7.12219 1.79704 5.39929 -4.01752 2.58323 2.36736 1 -7.37918 0.0176881 4
377 1 8.01178 0.888937 4.49867 2.23604 6.26329 -4.58731 1 -7.35649 0.040627 4
378 1 8.04763 2.65453 6.29621 0.722629 5.15152 9.23984 1 -7.36656 0.0699824 4
379 1 5.32135 3.5635 5.31419 -11.0687 -3.43086 -2.40281 1 -7.30345 0.0871773 4
380 1 5.29553 1.78469 7.12865 4.76389 -2.82817 -7.96516 1 -7.29454 0.0585933 4
381 1 4.42932 0.916914 7.989 -2.33047 -7.60905 -0.664462 1 -7.28431 0.0396922 4
382 1 6.25898 2.62911 8.04113 1.59149 4.8199 -8.3044 1 -7.22921 0.0589608 4
383 1 8.03854 0.891466 8.04461 -6.20846 4.61883 1.66414 1 -7.33157 0.0389937 4
384 1 7.15804 3.516 7.1499 0.00350317 7.56414 -3.07864 1 -7.3106 0.0415122 4
385 1 5.30529 0.00769984 5.38301 0.440849 2.88237 -5.47832 1 -7.29462 0.0239724 4
386 1 9.79484 0.859522 6.30772 3.71098 1.89045 -0.590459 1 -7.25529 0.0110131 4
387 1 9.78961 2.65249 4.45982 -1.13443 1.70176 0.419549 1 -7.35151 0.00271311 4
388 1 10.69 1.7585 5.35798 -1.51605 -1.09496 5.75175 1 -7.33488 0.0227683 4
389 1 11.5959 0.890125 4.51119 -1.83986 -5.64403 -4.0101 1 -7.39878 0.0319436 4
390 1 11.5957 2.67084 6.2538 0.576306 -1.10336 -0.332721 1 -7.3153 0.00103338 4
391 1 8.93312 3.51986 5.37232 3.59916 1.25691 1.68673 1 -7.33918 0.0108171 4
392 1 12.5008 3.57894 5.33157 5.37938 0.254018 1.10974 1 -7.3536 0.0188183 4
393 1 8.92106 1.77676 7.1653 -1.89362 -0.75125 -3.54408 1 -7.38922 0.0104012 4
394 1 9.84787 2.65893 8.06255 -2.31565 7.46867 0.797689 1 -7.34703 0.0384532 4
395 1 12.475 1.77264 7.16623 -1.52891 0.487776 -6.34637 1 -7.3096 0.0266722 4
396 1 11.5844 0.883142 8.05519 1.42684 -5.15526 -2.02596 1 -7.35317 0.020364 4
397 1 10.7506 3.54008 7.17068 -0.823829 1.62851 2.19008 1 -7.35172 0.00505857 4
398 1 13.3849 0.85082 6.2342 3.98338 -5.15245 4.80871 1 -7.27429 0.0407931 4
399 1 13.3355 2.66591 4.46333 1.42061 13.1651 -0.136812 1 -7.26339 0.109146 4
400 1 14.2763 1.7371 5.35824 -2.79939 -2.36466 -0.563001 1 -7.3193 0.00855535 4
401 1 15.1826 0.878663 4.47371 1.70064 3.26245 -4.92562 1 -7.37931 0.0235261 4
402 1 15.083 2.69986 6.23589 -2.09346 4.68606 6.36869 1 -7.35124 0.0416415 4
403 1 16.9282 0.870649 6.22228 4.0041 1.27363 4.97519 1 -7.37634 0.0263955 4
404 1 16.9089 2.68683 4.42783 -2.01414 -4.64514 6.8775 1 -7.30663 0.0453961 4
405 1 16.0347 3.55417 5.34917 -2.54102 4.75961 0.293848 1 -7.34391 0.018173 4
406 1 13.369 2.6703 8.05287 -10.0008 -8.00125 -3.92557 1 -7.34438 0.111692 4
407 1 16.0188 1.81049 7.13359 2.14376 -5.8239 1.90512 1 -7.25034 0.0262309 4
408 1 15.2043 0.880996 8.07726 -0.605192 -4.19417 -1.93292 1 -7.31302 0.0135026 4
409 1 16.9066 2.67467 8.04579 -2.52635 10.8151 -1.6046 1 -7.34882 0.0783787 4
410 1 14.264 3.56566 7.1124 2.39522 0.259062 -0.0143816 1 -7.3778 0.00361282 4
695 1 14.3328 0.0155086 7.16244 -2.82006 -0.0364584 -0.189011 1 -7.29917 0.00497304 4
411 1 21.3788 1.76749 5.35883 -0.10356 -5.21666 1.89664 1 -7.27076 0.0191841 4
371 1 21.3541 3.59834 7.13325 1.33733 -0.0324249 -1.29981 1 -7.33944 0.00216543 4
412 1 17.8344 1.76193 5.34525 5.44699 2.1433 -0.783201 1 -7.3547 0.0217083 4
413 1 18.7178 0.89154 4.47058 -7.7983 1.22832 -4.17062 1 -7.33159 0.0496175 4
414 1 18.6992 2.66954 6.24269 -3.93482 -0.417613 -3.2146 1 -7.35614 0.0161774 4
415 1 20.4811 0.878825 6.30064 -7.482 5.87716 5.60901 1 -7.32267 0.075925 4
416 1 20.4844 2.63492 4.44973 6.72329 3.69816 3.66463 1 -7.32427 0.0450067 4
417 1 19.6132 3.52412 5.33893 -6.00342 -4.14774 -7.90835 1 -7.36083 0.0720687 4
418 1 19.5921 1.78087 7.13252 -0.0576421 -6.71391 -3.46772 1 -7.39398 0.0355436 4
419 1 18.7453 0.865646 8.02622 -5.23534 -2.1838 0.667005 1 -7.27701 0.0203052 4
420 1 20.4748 2.67938 7.9921 -3.3114 -5.34522 0.391913 1 -7.33223 0.0247043 4
421 1 17.856 3.51407 7.17726 -1.96651 -4.68433 -4.81313 1 -7.32472 0.0304842 4
423 1 0.890996 4.44686 4.43294 0.626492 0.929261 -1.53824 1 -7.36202 0.00225456 4
424 1 0.913164 6.16014 6.22462 9.25861 -0.609293 -2.77868 1 -7.36131 0.0583924 4
425 1 2.65998 4.45039 6.24206 -2.69562 -9.5313 -6.17573 1 -7.26362 0.0848066 4
426 1 2.68354 6.28435 4.45147 -0.346892 -2.84907 -1.59315 1 -7.27777 0.00670707 4
427 1 3.59359 5.35393 5.36578 -2.95342 -1.97956 1.03814 1 -7.29703 0.00853913 4
428 1 1.77708 7.11535 5.34084 7.13033 4.73732 7.26172 1 -7.29887 0.078436 4
429 1 0.906911 7.99035 4.47423 -1.66927 0.188622 5.4062 1 -7.37672 0.0199482 4
430 1 2.68228 8.0505 6.25424 12.7326 -10.5837 -3.25707 1 -7.30902 0.177232 4
431 1 1.74936 5.33282 7.11877 8.43048 -1.64333 5.78118 1 -7.36633 0.0667213 4
432 1 0.863864 4.44034 8.03175 -5.88075 -6.44646 2.81118 1 -7.3613 0.0523104 4
433 1 2.65536 6.2045 8.00572 -12.8991 3.98699 -3.83491 1 -7.35048 0.122611 4