ITEM: TIMESTEP
49125550
ITEM: NUMBER OF ATOMS
3060
ITEM: BOX BOUNDS pp pp mm
0.0000000000000000e+00 2.1394294200000001e+01
0.0000000000000000e+00 2.1394294200000001e+01
-5.3491084073550004e-03 5.3485735499999997e+01
ITEM: ATOMS id type x y z vx vy vz c_clusts c_atom_pe c_atom_ke c_atom_coord
1 1 0 0 0 0 0 0 1 -3.33985 0 2
2 1 1.78286 1.78286 0 0 0 0 1 -3.34938 0 2
3 1 0.891429 0.891429 0.891429 0 0 0 1 -7.02043 0 4
4 1 0.92799 2.69127 2.68405 -1.51157 10.7241 -3.45693 1 -7.37862 0.0804438 4
5 1 2.73156 0.93318 2.72208 -0.393727 1.59171 -9.06108 1 -7.33247 0.0527766 4
6 1 2.67429 2.67429 0.891429 0 0 0 1 -6.99426 0 4
7 1 3.56572 0 0 0 0 0 1 -3.34725 0 2
8 1 3.59725 1.82494 1.82546 -3.03235 -2.11417 2.73361 1 -7.30739 0.0131565 4
9 1 0 3.56572 0 0 0 0 1 -3.34013 0 2
10 1 1.81273 3.60364 1.77894 0.568974 -4.02226 4.47271 1 -7.33722 0.0227232 4
11 1 3.56572 3.56572 0 0 0 0 1 -3.32115 0 2
12 1 1.7719 1.78327 3.57367 4.43292 1.66944 -2.43036 1 -7.3201 0.0176423 4
13 1 3.55958 3.54172 3.56728 4.82127 8.57801 -0.00290397 1 -7.25115 0.0602676 4
292 1 1.79587 0.00968006 1.77892 5.33631 -0.933388 -3.27153 1 -7.28693 0.0249284 4
56 1 0.000240391 3.58418 3.58813 -5.96376 4.49811 -1.35762 1 -7.37181 0.0358783 4
55 1 0.0345468 1.79661 1.78095 1.23857 -0.187086 0.803297 1 -7.32167 0.00137826 4
291 1 3.5772 0.0431498 3.60367 -5.69115 3.94711 -11.7323 1 -7.32809 0.115532 4
350 1 0.00750398 0.00899164 3.62113 1.61601 -2.29314 -10.4885 1 -7.3711 0.0733711 4
14 1 5.34857 1.78286 0 0 0 0 1 -3.33342 0 2
15 1 4.45714 0.891429 0.891429 0 0 0 1 -6.96939 0 4
16 1 4.49483 2.74251 2.66528 0.164835 -6.84035 8.01753 1 -7.30033 0.0691505 4
17 1 6.28416 0.883059 2.62556 1.41254 -4.60765 4.88722 1 -7.24537 0.0293229 4
18 1 6.24 2.67429 0.891429 0 0 0 1 -7.0407 0 4
19 1 7.13143 0 0 0 0 0 1 -3.34092 0 2
20 1 7.15501 1.7666 1.74996 -4.38882 -1.50078 2.95033 1 -7.40489 0.0188088 4
21 1 8.02286 0.891429 0.891429 0 0 0 1 -7.00844 0 4
22 1 8.03139 2.6342 2.65894 -10.705 -6.94968 2.60231 1 -7.37324 0.105605 4
23 1 5.36629 3.59488 1.75184 -1.08176 0.360486 3.66117 1 -7.38692 0.00915235 4
24 1 7.13143 3.56572 0 0 0 0 1 -3.30389 0 2
25 1 5.35098 1.78769 3.5826 3.3413 -6.26901 -2.89786 1 -7.25155 0.0366374 4
26 1 7.11533 3.5453 3.55447 -0.990127 -0.129716 -6.07847 1 -7.36601 0.023618 4
306 1 7.16082 0.0254401 3.56637 8.09103 6.57441 -8.50637 1 -7.29718 0.112688 4
28 1 8.91429 1.78286 0 0 0 0 1 -3.31449 0 2
29 1 9.81324 0.904359 2.67466 0.691459 -3.50651 0.0204512 1 -7.36269 0.00795096 4
30 1 9.80572 2.67429 0.891429 0 0 0 1 -6.96811 0 4
31 1 10.6971 0 0 0 0 0 1 -3.33724 0 2
32 1 10.7334 1.78019 1.77596 -0.787699 -5.81471 4.74621 1 -7.34723 0.035452 4
33 1 12.48 1.78286 0 0 0 0 1 -3.34754 0 2
34 1 11.5886 0.891429 0.891429 0 0 0 1 -7.02592 0 4
35 1 11.5926 2.64457 2.68384 -6.1194 0.453743 -3.91804 1 -7.33374 0.0329911 4
36 1 8.88271 3.57996 1.76813 3.64791 0.311786 1.16019 1 -7.30588 0.00918111 4
37 1 10.6971 3.56572 0 0 0 0 1 -3.32765 0 2
38 1 12.4895 3.56039 1.77609 -1.39587 -4.64007 -8.11635 1 -7.32205 0.0556162 4
39 1 8.94331 1.76219 3.52628 0.525526 0.75663 -3.17617 1 -7.42905 0.00680729 4
40 1 12.478 1.76711 3.62584 -10.8942 8.86751 -0.385689 1 -7.33059 0.122908 4
41 1 10.6951 3.55364 3.55918 -6.84295 -4.04278 2.5377 1 -7.3439 0.043327 4
319 1 10.7254 0.0274409 3.56789 4.33072 -2.878 2.89711 1 -7.31771 0.0220533 4
42 1 13.387 0.903606 2.68181 3.82254 -4.57112 -4.17001 1 -7.28835 0.0329238 4
43 1 13.3714 2.67429 0.891429 0 0 0 1 -7.01966 0 4
44 1 14.2629 0 0 0 0 0 1 -3.33844 0 2
45 1 14.2828 1.83062 1.80114 -5.83306 -1.10591 -3.17092 1 -7.35913 0.0281973 4
46 1 16.0457 1.78286 0 0 0 0 1 -3.31057 0 2
47 1 15.1543 0.891429 0.891429 0 0 0 1 -6.99782 0 4
48 1 15.1631 2.70351 2.65853 2.61421 0.879437 3.48587 1 -7.34064 0.0122984 4
49 1 16.9534 0.904434 2.66833 -8.35646 1.30635 1.19098 1 -7.31012 0.0454093 4
50 1 16.9371 2.67429 0.891429 0 0 0 1 -7.00933 0 4
51 1 14.2629 3.56572 0 0 0 0 1 -3.3315 0 2
52 1 16.0342 3.56459 1.76982 -6.86268 5.46776 -1.92617 1 -7.3832 0.0502317 4
53 1 16.1067 1.82046 3.58203 -9.69089 3.99317 -1.51953 1 -7.34146 0.0698162 4
54 1 14.2406 3.53986 3.59369 3.20899 6.01499 -2.89248 1 -7.28724 0.0341365 4
336 1 14.3032 0.0356807 3.60248 0.25375 -5.92389 -0.629957 1 -7.26322 0.0221295 4
57 1 17.8286 0 0 0 0 0 1 -3.3275 0 2
58 1 17.8332 1.76344 1.77575 -3.12971 0.369206 -2.359 1 -7.37893 0.00964526 4
59 1 19.6114 1.78286 0 0 0 0 1 -3.32902 0 2
60 1 18.72 0.891429 0.891429 0 0 0 1 -7.04887 0 4
61 1 18.6613 2.67543 2.67006 -3.36433 7.15696 1.48238 1 -7.34161 0.0402948 4
62 1 20.5109 0.890151 2.69203 -1.66876 4.4597 -7.80771 1 -7.32903 0.052056 4
63 1 20.5029 2.67429 0.891429 0 0 0 1 -6.99724 0 4
64 1 17.8286 3.56572 0 0 0 0 1 -3.33503 0 2
65 1 19.5766 3.58064 1.77742 2.5628 -0.400799 1.27687 1 -7.26935 0.00520286 4
66 1 19.6413 1.81952 3.55558 0.489458 5.58338 -1.64249 1 -7.3135 0.0212319 4
67 1 17.8009 3.58667 3.5528 7.7253 -1.08942 2.72813 1 -7.37717 0.0425178 4
68 1 19.6238 0.0193087 1.76133 -2.20862 2.27498 -2.1201 1 -7.37314 0.00905528 4
349 1 17.8584 0.00611189 3.58947 -1.28014 10.6185 -5.79023 1 -7.27372 0.0920686 4
69 1 1.78286 5.34857 0 0 0 0 1 -3.3245 0 2
70 1 0.891429 4.45714 0.891429 0 0 0 1 -7.01883 0 4
71 1 0.89853 6.28261 2.68623 -8.5969 -10.9533 -12.1582 1 -7.36895 0.212684 4
72 1 2.66448 4.52095 2.65678 -3.20799 -11.0197 -1.46251 1 -7.30161 0.0833208 4
73 1 2.67429 6.24 0.891429 0 0 0 1 -6.99917 0 4
74 1 3.57162 5.36171 1.78207 -9.27763 -2.10072 4.88105 1 -7.32608 0.0711508 4
75 1 0 7.13143 0 0 0 0 1 -3.34392 0 2
76 1 1.78757 7.1333 1.81263 2.88741 3.25983 -0.864843 1 -7.33585 0.012269 4
77 1 0.891429 8.02286 0.891429 0 0 0 1 -7.02171 0 4
78 1 2.65778 7.99078 2.69972 -4.40688 -3.84518 0.347894 1 -7.35432 0.021366 4
79 1 3.56572 7.13143 0 0 0 0 1 -3.32971 0 2
80 1 1.7846 5.39744 3.57703 0.623497 -9.83529 2.7536 1 -7.32576 0.0651705 4
81 1 3.57246 7.13496 3.56347 3.25987 -4.17845 -5.71298 1 -7.42063 0.0377965 4
128 1 0.0102847 5.36726 1.78428 -0.100607 -6.15961 -2.52613 1 -7.36166 0.0275935 4
82 1 0.0240004 7.15418 3.58385 8.41061 -4.2872 -5.87723 1 -7.37482 0.0769693 4
83 1 5.34857 5.34857 0 0 0 0 1 -3.31383 0 2
84 1 4.45714 4.45714 0.891429 0 0 0 1 -7.05542 0 4
85 1 4.46246 6.2866 2.70387 2.33331 1.33 -0.148476 1 -7.29986 0.00450344 4
86 1 6.23837 4.43926 2.70586 5.3698 3.35054 -2.84586 1 -7.38417 0.0299759 4
87 1 6.24 6.24 0.891429 0 0 0 1 -6.99151 0 4
88 1 7.10801 5.31697 1.80402 2.56621 2.6539 3.09945 1 -7.33395 0.0144622 4
89 1 8.02286 4.45714 0.891429 0 0 0 1 -7.02416 0 4
90 1 8.01611 6.24242 2.61563 -0.604437 6.20849 -7.99929 1 -7.26173 0.0640473 4
91 1 5.36468 7.13545 1.77641 -4.99328 -2.2943 -0.750284 1 -7.34157 0.0191456 4
92 1 4.45714 8.02286 0.891429 0 0 0 1 -7.01247 0 4
93 1 6.33624 8.02932 2.67139 1.12967 -4.85929 9.50678 1 -7.26861 0.0717456 4
94 1 7.13143 7.13143 0 0 0 0 1 -3.35071 0 2
95 1 8.02286 8.02286 0.891429 0 0 0 1 -6.99664 0 4
96 1 5.34859 5.31723 3.61358 0.662279 -0.48507 6.11192 1 -7.33915 0.0236705 4
97 1 7.13235 7.1292 3.5766 2.18155 4.86098 -4.3607 1 -7.31555 0.0295055 4
98 1 8.91429 5.34857 0 0 0 0 1 -3.34422 0 2
99 1 9.82832 4.46629 2.66559 7.55664 -3.96471 -1.23241 1 -7.32054 0.0462715 4
100 1 9.80572 6.24 0.891429 0 0 0 1 -7.00686 0 4
101 1 10.7101 5.36972 1.77812 6.98549 -1.27762 4.11416 1 -7.37091 0.0419239 4
102 1 12.48 5.34857 0 0 0 0 1 -3.32024 0 2
103 1 11.5886 4.45714 0.891429 0 0 0 1 -7.00274 0 4
104 1 11.5879 6.22163 2.66622 0.289022 0.951492 1.59942 1 -7.31257 0.00220775 4
105 1 8.87062 7.12938 1.77396 9.98239 3.55699 -6.71635 1 -7.38192 0.0979758 4
106 1 9.77206 7.98335 2.67427 -3.90356 0.173902 1.68331 1 -7.35497 0.0112669 4
107 1 10.6971 7.13143 0 0 0 0 1 -3.33018 0 2
108 1 12.4747 7.16301 1.73523 1.26094 0.40966 3.57485 1 -7.30363 0.00904843 4
109 1 11.5886 8.02286 0.891429 0 0 0 1 -7.04966 0 4
110 1 8.91961 5.34858 3.56206 -5.38982 1.40502 -9.80679 1 -7.29835 0.079171 4
111 1 12.5266 5.31729 3.54335 0.952445 -2.16809 1.71127 1 -7.34859 0.00531318 4
112 1 10.6914 7.07 3.54754 -0.261175 -0.297801 -1.92045 1 -7.32571 0.00239325 4
113 1 13.3685 4.49622 2.6772 -3.83905 1.80342 -5.91092 1 -7.29737 0.0329448 4
114 1 13.3714 6.24 0.891429 0 0 0 1 -6.93266 0 4
115 1 14.3175 5.31084 1.79434 1.01499 -2.45241 9.82664 1 -7.35086 0.0644879 4
116 1 16.0457 5.34857 0 0 0 0 1 -3.3496 0 2
117 1 15.1543 4.45714 0.891429 0 0 0 1 -7.04684 0 4
118 1 15.1704 6.18709 2.69041 -0.988341 2.31111 -6.46387 1 -7.29325 0.0299385 4
119 1 16.9229 4.44683 2.67916 0.500647 2.97194 -6.33754 1 -7.35184 0.030653 4
120 1 16.9371 6.24 0.891429 0 0 0 1 -7.01639 0 4
121 1 13.3773 7.99689 2.62203 1.20719 -3.89883 6.19933 1 -7.34399 0.0342894 4
122 1 14.2629 7.13143 0 0 0 0 1 -3.31479 0 2
123 1 16.0771 7.14851 1.75193 2.7212 -4.50528 -4.58589 1 -7.29635 0.0303326 4
124 1 15.1543 8.02286 0.891429 0 0 0 1 -7.02568 0 4
125 1 16.959 8.01855 2.65164 4.828 7.76121 10.6786 1 -7.3633 0.122979 4
126 1 16.106 5.32852 3.55232 6.4678 -4.92845 -1.9366 1 -7.29393 0.0434904 4
127 1 14.3019 7.09178 3.54461 -4.72352 3.74523 -3.66979 1 -7.34467 0.0310004 4
129 1 17.8231 5.36714 1.7869 0.672835 -2.33211 0.890976 1 -7.329 0.00416111 4
130 1 19.6114 5.34857 0 0 0 0 1 -3.32785 0 2
131 1 18.72 4.45714 0.891429 0 0 0 1 -7.01494 0 4
132 1 18.7017 6.24112 2.70445 -2.57619 1.99084 -1.11619 1 -7.369 0.00737331 4
133 1 20.5159 4.48854 2.71633 2.86946 0.0695547 -1.80081 1 -7.3538 0.00714643 4
134 1 20.5029 6.24 0.891429 0 0 0 1 -6.993 0 4
135 1 17.8286 7.13143 0 0 0 0 1 -3.30846 0 2
136 1 19.5607 7.11711 1.7808 -1.79438 -4.98645 5.44984 1 -7.29213 0.0359671 4
137 1 18.72 8.02286 0.891429 0 0 0 1 -7.00648 0 4
138 1 20.5295 8.00751 2.69441 2.31928 2.78385 -1.87365 1 -7.28447 0.0103568 4
139 1 19.6217 5.37993 3.56465 -3.0125 -2.20238 -4.25483 1 -7.34296 0.0199359 4
140 1 17.8064 7.13054 3.54986 -1.52761 -2.91119 -2.22511 1 -7.32459 0.00980927 4
141 1 1.78286 8.91429 0 0 0 0 1 -3.33948 0 2
142 1 0.892299 9.79861 2.69247 -0.0441006 6.50752 -7.63786 1 -7.33 0.06267 4
143 1 2.67429 9.80572 0.891429 0 0 0 1 -7.05667 0 4
144 1 3.54667 8.92217 1.76241 3.34891 -4.36435 3.02049 1 -7.3422 0.024515 4
145 1 0 10.6971 0 0 0 0 1 -3.33278 0 2
146 1 1.81411 10.6907 1.74982 1.2689 -0.542268 3.3272 1 -7.28779 0.00807561 4
147 1 1.78286 12.48 0 0 0 0 1 -3.31298 0 2
148 1 0.891429 11.5886 0.891429 0 0 0 1 -7.01497 0 4
149 1 2.74548 11.5891 2.69058 2.61868 -0.882239 -3.58712 1 -7.28428 0.0127617 4
150 1 3.56572 10.6971 0 0 0 0 1 -3.32713 0 2
151 1 3.56132 12.501 1.79362 10.6773 -1.01859 -0.181076 1 -7.35573 0.0716257 4
152 1 1.75669 8.88954 3.57046 -7.78787 -1.73883 -0.924476 1 -7.36229 0.0401646 4
153 1 1.7728 12.4817 3.52496 6.62201 0.155325 1.04624 1 -7.32109 0.0279903 4
154 1 3.58918 10.6868 3.63864 1.0627 -1.47206 3.71454 1 -7.37266 0.0106398 4
205 1 0.021523 8.88733 1.77539 7.79864 -5.71945 -1.6322 1 -7.30404 0.0598743 4
204 1 0.0274687 12.5029 1.75508 12.8013 -1.76385 -1.01066 1 -7.3828 0.104571 4
155 1 5.34857 8.91429 0 0 0 0 1 -3.34002 0 2
156 1 4.46081 9.77523 2.69619 5.29543 2.77917 -4.18252 1 -7.31019 0.0331497 4
157 1 6.24 9.80572 0.891429 0 0 0 1 -7.00715 0 4
158 1 7.17545 8.94467 1.81374 5.64087 1.42363 -1.19935 1 -7.32549 0.021962 4
159 1 8.06977 9.83569 2.68652 -4.928 1.7301 1.53044 1 -7.32757 0.0184367 4
160 1 5.35546 10.6803 1.77053 -2.88686 7.2182 -4.51605 1 -7.33166 0.0503114 4
161 1 5.34857 12.48 0 0 0 0 1 -3.34152 0 2
162 1 4.45714 11.5886 0.891429 0 0 0 1 -6.99336 0 4
163 1 6.26535 11.5859 2.65197 -1.72862 -2.72734 2.65133 1 -7.29695 0.0108651 4
164 1 7.13143 10.6971 0 0 0 0 1 -3.34024 0 2
165 1 7.16794 12.5097 1.77178 0.299483 0.262502 -4.45494 1 -7.36588 0.0124517 4
166 1 8.02286 11.5886 0.891429 0 0 0 1 -7.03249 0 4
167 1 5.39719 8.93002 3.57035 -4.23227 4.09801 0.331851 1 -7.28186 0.0216703 4
168 1 5.36196 12.4681 3.56629 11.8358 2.20538 -3.24043 1 -7.29845 0.0967566 4
169 1 7.11826 10.7052 3.61332 -3.02266 -6.13282 -8.60603 1 -7.29695 0.0751963 4
170 1 8.91429 8.91429 0 0 0 0 1 -3.31863 0 2
171 1 9.80572 9.80572 0.891429 0 0 0 1 -6.92772 0 4
172 1 10.6991 8.86168 1.80326 0.676639 0.591589 -2.38104 1 -7.32984 0.00403157 4
173 1 12.48 8.91429 0 0 0 0 1 -3.32438 0 2
174 1 11.5453 9.77815 2.65004 -0.351364 -0.961506 -5.03162 1 -7.36775 0.0164104 4
175 1 8.86916 10.7388 1.78173 -4.07851 -1.94089 0.444696 1 -7.31648 0.0128214 4
176 1 8.91429 12.48 0 0 0 0 1 -3.34125 0 2
177 1 9.76115 11.6055 2.72254 -3.89174 -0.560618 -6.66119 1 -7.28408 0.0372406 4
178 1 10.6971 10.6971 0 0 0 0 1 -3.32902 0 2
179 1 10.6785 12.5062 1.76625 -2.03252 -3.82213 3.41807 1 -7.30746 0.0189361 4
180 1 12.4447 10.6921 1.78691 1.45258 -0.388664 1.76784 1 -7.38916 0.00335259 4
181 1 12.48 12.48 0 0 0 0 1 -3.34205 0 2
182 1 11.5886 11.5886 0.891429 0 0 0 1 -7.03075 0 4
183 1 8.92565 8.91911 3.57258 -1.85279 4.21406 -11.2219 1 -7.39864 0.0915728 4
184 1 12.4401 8.88368 3.50765 1.69691 -9.26808 -4.77329 1 -7.32743 0.0694385 4
185 1 8.88385 12.4821 3.62442 5.43794 -2.37529 0.484117 1 -7.37111 0.0220635 4
186 1 10.6709 10.6863 3.59455 -2.78071 10.2077 -0.837282 1 -7.35315 0.0701047 4
187 1 12.5025 12.4117 3.57089 2.42131 -3.00113 0.878856 1 -7.21188 0.00973592 4
188 1 13.3714 9.80572 0.891429 0 0 0 1 -6.96965 0 4
189 1 14.2622 8.88819 1.7833 1.31854 -4.10433 2.05673 1 -7.34677 0.0142002 4
190 1 16.0457 8.91429 0 0 0 0 1 -3.34011 0 2
191 1 15.1899 9.82243 2.67768 2.14307 -9.81719 6.89317 1 -7.25056 0.0924215 4
192 1 16.9371 9.80572 0.891429 0 0 0 1 -7.00128 0 4
193 1 13.3815 11.543 2.67058 4.03483 5.28686 4.30646 1 -7.36127 0.0390737 4
194 1 14.2629 10.6971 0 0 0 0 1 -3.36278 0 2
195 1 14.261 12.4825 1.81265 6.84661 0.944055 6.65277 1 -7.37193 0.0572798 4
196 1 16.0869 10.7554 1.77152 -5.5796 0.720846 -2.89725 1 -7.33052 0.0249254 4
197 1 16.0457 12.48 0 0 0 0 1 -3.32611 0 2
198 1 15.1543 11.5886 0.891429 0 0 0 1 -6.97176 0 4
199 1 16.945 11.6365 2.66217 -2.09161 4.06326 -1.20315 1 -7.33497 0.0139003 4
200 1 16.0741 8.94312 3.59985 1.72626 -2.49874 -0.968506 1 -7.29134 0.00632489 4
201 1 14.2666 10.6819 3.6044 -7.78413 1.8406 -2.94886 1 -7.34397 0.0452356 4
202 1 16.0143 12.5148 3.54685 0.366072 0.0701698 6.84007 1 -7.32354 0.0292076 4
203 1 21.3813 10.6891 3.53235 3.88402 7.18928 -1.45432 1 -7.40416 0.0428767 4
206 1 17.812 8.91802 1.78738 -0.843244 -2.0036 8.21711 1 -7.33529 0.044968 4
207 1 19.6114 8.91429 0 0 0 0 1 -3.34142 0 2
208 1 18.7574 9.84833 2.61879 0.793654 2.01992 1.36569 1 -7.31821 0.00409249 4
209 1 20.5029 9.80572 0.891429 0 0 0 1 -6.97756 0 4
210 1 17.8286 10.6971 0 0 0 0 1 -3.32353 0 2
211 1 17.8471 12.4892 1.78609 -6.4109 -5.4125 9.11906 1 -7.32627 0.0955748 4
212 1 19.5948 10.7141 1.7761 5.24609 3.16779 4.48323 1 -7.38295 0.0358865 4
213 1 19.6114 12.48 0 0 0 0 1 -3.34351 0 2
214 1 18.72 11.5886 0.891429 0 0 0 1 -7.0391 0 4
215 1 20.5248 11.5825 2.61663 6.58302 3.95943 5.04791 1 -7.36121 0.0525916 4
216 1 19.6222 8.95576 3.53608 -7.51643 2.88733 3.75642 1 -7.32442 0.0491369 4
217 1 17.8221 10.7276 3.55467 9.33322 -4.74867 3.8868 1 -7.31743 0.0776576 4
218 1 19.651 12.4974 3.51838 -1.69715 0.900371 -1.98953 1 -7.29883 0.00476108 4
219 1 0.89776 13.37 2.65672 4.71377 0.479562 0.157058 1 -7.38213 0.0139886 4
220 1 2.67429 13.3714 0.891429 0 0 0 1 -7.04991 0 4
221 1 0 14.2629 0 0 0 0 1 -3.2959 0 2
222 1 1.78312 14.256 1.76239 4.47322 -4.05146 -1.2974 1 -7.37646 0.0237189 4
223 1 1.78286 16.0457 0 0 0 0 1 -3.33195 0 2
224 1 0.891429 15.1543 0.891429 0 0 0 1 -7.02645 0 4
225 1 0.883201 16.9608 2.65373 1.33358 2.17308 -3.6396 1 -7.36177 0.0122913 4
226 1 2.65944 15.1843 2.63957 -0.845814 8.38766 -5.20806 1 -7.32594 0.0611173 4
227 1 2.67429 16.9371 0.891429 0 0 0 1 -6.98037 0 4
228 1 3.56572 14.2629 0 0 0 0 1 -3.34384 0 2
229 1 3.5906 16.0539 1.81278 -2.22604 0.703547 3.57784 1 -7.32732 0.01136 4
230 1 1.76896 16.0955 3.55212 -2.5863 1.12964 -0.854106 1 -7.33786 0.00541171 4
231 1 3.55255 14.3247 3.56014 6.58675 -2.31239 -0.0203896 1 -7.30392 0.0303326 4
233 1 0.00165081 16.0259 1.74474 5.61077 3.34795 0.886365 1 -7.34281 0.0270601 4
232 1 0.0188772 14.3011 3.56228 0.93079 -1.68768 5.933 1 -7.26631 0.0242218 4
234 1 4.4684 13.3929 2.67537 -3.82582 -9.87179 -4.88618 1 -7.33877 0.0846275 4
235 1 6.24 13.3714 0.891429 0 0 0 1 -7.01991 0 4
236 1 8.06413 13.3754 2.67571 5.05238 1.3722 -2.00742 1 -7.34612 0.0195686 4
237 1 5.35268 14.2564 1.79585 -9.88923 2.11809 2.75127 1 -7.3565 0.0683752 4
238 1 5.34857 16.0457 0 0 0 0 1 -3.33902 0 2
239 1 4.45714 15.1543 0.891429 0 0 0 1 -6.99848 0 4
240 1 4.44301 16.9345 2.69507 -5.07757 7.68054 7.94347 1 -7.35126 0.0920388 4
241 1 6.25293 15.1736 2.64131 2.73392 -2.38699 -3.32112 1 -7.29569 0.0150638 4
242 1 6.24 16.9371 0.891429 0 0 0 1 -6.95781 0 4
243 1 7.13143 14.2629 0 0 0 0 1 -3.34582 0 2
244 1 7.16505 16.0617 1.78069 -3.33229 1.47376 -4.0419 1 -7.40918 0.018432 4
245 1 8.02286 15.1543 0.891429 0 0 0 1 -7.0189 0 4
246 1 8.00882 16.9541 2.66081 -4.79253 -3.43266 5.98787 1 -7.31959 0.0439471 4
247 1 5.30975 16.0413 3.58473 -5.54584 -6.76218 2.53478 1 -7.31386 0.0516044 4
248 1 7.15382 14.2799 3.58083 -3.92552 5.23967 -8.35048 1 -7.30319 0.0700817 4
249 1 9.80572 13.3714 0.891429 0 0 0 1 -6.98729 0 4
250 1 11.5815 13.403 2.64651 3.72472 1.03828 -3.75094 1 -7.25949 0.0180635 4
251 1 8.94176 14.3007 1.80552 7.24761 -4.96344 1.68072 1 -7.36132 0.0497869 4
252 1 8.91429 16.0457 0 0 0 0 1 -3.31862 0 2
253 1 9.83898 15.1815 2.66453 7.01424 2.12755 -3.34407 1 -7.34542 0.040401 4
254 1 9.80572 16.9371 0.891429 0 0 0 1 -7.0402 0 4
255 1 10.6971 14.2629 0 0 0 0 1 -3.33078 0 2
256 1 10.6919 16.06 1.78142 -9.40072 -0.691429 -2.14305 1 -7.3813 0.0581622 4
257 1 12.4695 14.3012 1.77241 -0.125521 1.38086 5.47583 1 -7.3733 0.0198599 4
258 1 12.48 16.0457 0 0 0 0 1 -3.32208 0 2
259 1 11.5886 15.1543 0.891429 0 0 0 1 -7.01907 0 4
260 1 11.589 16.9363 2.66001 15.1804 3.9209 3.01008 1 -7.30601 0.158644 4
261 1 8.95102 16.0744 3.61579 11.211 7.84745 6.8686 1 -7.22731 0.145925 4
262 1 10.7268 14.2633 3.57717 9.66312 8.64142 -10.0474 1 -7.34201 0.167432 4
263 1 12.5155 16.0056 3.57861 -7.71053 0.0842254 5.05558 1 -7.34803 0.0529176 4
264 1 13.3714 13.3714 0.891429 0 0 0 1 -6.9977 0 4
265 1 15.1693 13.3503 2.63142 0.226734 0.279944 -3.23575 1 -7.31273 0.00659764 4
266 1 16.9371 13.3714 0.891429 0 0 0 1 -6.98849 0 4
267 1 13.3468 15.1405 2.66688 0.0522949 8.89815 5.46318 1 -7.34737 0.0678608 4
268 1 13.3714 16.9371 0.891429 0 0 0 1 -7.01615 0 4
269 1 14.2629 14.2629 0 0 0 0 1 -3.32558 0 2
270 1 14.2694 16.0294 1.744 -6.58993 -0.471916 4.91282 1 -7.34089 0.0421916 4
271 1 16.0682 14.2723 1.76018 2.22291 0.34317 -2.61392 1 -7.40014 0.00740168 4
272 1 16.0457 16.0457 0 0 0 0 1 -3.33 0 2
273 1 15.1543 15.1543 0.891429 0 0 0 1 -7.04131 0 4
274 1 15.1661 16.9467 2.6535 4.82572 0.377329 -13.5194 1 -7.24248 0.128347 4
275 1 16.9428 15.122 2.65022 9.39828 -5.14549 -5.34085 1 -7.38395 0.0892114 4
276 1 16.9371 16.9371 0.891429 0 0 0 1 -7.05664 0 4
277 1 14.2578 14.256 3.57176 -5.90334 1.83602 6.54449 1 -7.31974 0.0504481 4
278 1 16.0634 16.02 3.56763 1.11119 3.04123 0.267658 1 -7.3121 0.00657001 4
279 1 18.7514 13.4229 2.6769 -1.5841 -4.81422 3.64047 1 -7.33371 0.0242367 4
280 1 20.5029 13.3714 0.891429 0 0 0 1 -6.99336 0 4
281 1 17.8286 14.2629 0 0 0 0 1 -3.32635 0 2
282 1 17.7939 16.059 1.77846 6.4824 6.64754 3.22445 1 -7.35399 0.0601316 4
283 1 19.6156 14.3171 1.77989 -7.01219 -4.62299 -0.224288 1 -7.36933 0.043939 4
284 1 19.6114 16.0457 0 0 0 0 1 -3.31043 0 2
285 1 18.72 15.1543 0.891429 0 0 0 1 -6.99312 0 4
286 1 18.7084 16.9161 2.64947 -0.746807 -8.39267 5.68695 1 -7.34298 0.064319 4
287 1 20.504 15.1546 2.63709 -11.2526 -4.32753 3.04066 1 -7.33122 0.0962238 4
288 1 20.5029 16.9371 0.891429 0 0 0 1 -7.00958 0 4
289 1 17.8317 14.2597 3.53979 4.48073 0.150042 1.66148 1 -7.34929 0.0142287 4
290 1 19.5949 16.0808 3.54393 6.34979 -10.5959 -0.611993 1 -7.32478 0.0952116 4
293 1 0 17.8286 0 0 0 0 1 -3.34242 0 2
294 1 1.75191 17.8243 1.77787 -1.0328 5.16645 -4.70753 1 -7.37662 0.0310713 4
295 1 1.78286 19.6114 0 0 0 0 1 -3.34374 0 2
296 1 0.891429 18.72 0.891429 0 0 0 1 -7.01099 0 4
297 1 0.882079 20.5533 2.72153 1.80471 -0.481645 -3.38263 1 -7.3222 0.00929352 4
298 1 2.62056 18.7132 2.64673 -4.07274 -1.06107 1.28288 1 -7.40255 0.0120495 4
299 1 2.67429 20.5029 0.891429 0 0 0 1 -7.04541 0 4
300 1 3.56572 17.8286 0 0 0 0 1 -3.32697 0 2
301 1 3.51312 19.6198 1.76958 0.232294 7.76294 9.44302 1 -7.3328 0.0930451 4
302 1 1.79143 19.6149 3.5435 -5.26855 2.80744 4.88482 1 -7.25323 0.0370348 4
303 1 3.53167 17.8557 3.56006 5.60056 -2.48255 -0.371913 1 -7.32811 0.0234453 4
305 1 0.013456 19.6003 1.81408 10.0243 -2.15529 7.32431 1 -7.32047 0.0988268 4
27 1 5.33099 21.3621 1.79784 6.28374 6.05916 -1.32194 1 -7.31621 0.0485158 4
307 1 5.31788 17.8671 1.78369 2.17014 3.43457 6.14414 1 -7.32137 0.0337705 4
308 1 5.34857 19.6114 0 0 0 0 1 -3.34026 0 2
309 1 4.45714 18.72 0.891429 0 0 0 1 -7.01291 0 4
310 1 4.43534 20.4922 2.6959 2.16079 -7.13437 2.60151 1 -7.34943 0.0387996 4
311 1 6.25552 18.7559 2.67839 -1.13821 -9.24125 -3.92125 1 -7.33274 0.0635326 4
312 1 6.24 20.5029 0.891429 0 0 0 1 -6.99549 0 4
313 1 7.13143 17.8286 0 0 0 0 1 -3.32166 0 2
314 1 7.13813 19.6315 1.79597 3.11296 -3.06703 0.699022 1 -7.391 0.0121907 4
315 1 8.02286 18.72 0.891429 0 0 0 1 -6.99064 0 4
316 1 8.05516 20.4895 2.62381 -2.08966 -4.19121 -1.64409 1 -7.28411 0.015334 4
317 1 5.30881 19.6271 3.58009 5.66738 -6.79083 -3.0375 1 -7.30722 0.0544381 4
318 1 7.13755 17.8575 3.57477 2.2282 4.04465 -3.51285 1 -7.40656 0.0209535 4
320 1 8.95003 21.386 1.74978 -5.31089 -7.38236 5.24263 1 -7.35745 0.0685851 4
321 1 12.4872 21.3785 1.79988 -3.4804 4.65078 1.5315 1 -7.37209 0.0224624 4
322 1 8.91303 17.8206 1.78173 -9.21787 -2.19103 -3.9482 1 -7.35848 0.0655776 4
323 1 8.91429 19.6114 0 0 0 0 1 -3.33094 0 2
324 1 9.79429 18.7025 2.68658 1.81559 -0.834349 4.52771 1 -7.32639 0.0152448 4
325 1 9.80572 20.5029 0.891429 0 0 0 1 -7.05923 0 4
326 1 10.6971 17.8286 0 0 0 0 1 -3.32595 0 2
327 1 10.6672 19.622 1.75762 -1.35799 -0.101198 -3.15566 1 -7.29706 0.00735245 4
328 1 12.496 17.8215 1.77561 -2.54215 4.19784 -6.13694 1 -7.42062 0.0384325 4
329 1 12.48 19.6114 0 0 0 0 1 -3.33411 0 2
330 1 11.5886 18.72 0.891429 0 0 0 1 -6.98011 0 4
331 1 11.6482 20.4855 2.6668 -5.63739 -3.17132 2.09848 1 -7.2909 0.0287816 4
332 1 8.95123 19.624 3.55763 4.94337 -8.67687 -3.89898 1 -7.31411 0.0715335 4
333 1 10.7149 17.8242 3.57283 -1.26794 -4.59206 3.41066 1 -7.39893 0.0213662 4
334 1 12.4884 19.5946 3.58131 4.17981 4.57378 5.60816 1 -7.39809 0.0434714 4
335 1 16.0508 21.3831 1.76161 0.0290455 0.103287 2.72137 1 -7.38143 0.00461675 4
337 1 13.3742 18.6878 2.64866 1.89336 -7.02288 1.2092 1 -7.30181 0.03384 4
338 1 13.3714 20.5029 0.891429 0 0 0 1 -7.0217 0 4
339 1 14.2629 17.8286 0 0 0 0 1 -3.33593 0 2
340 1 14.2768 19.6286 1.76578 -3.73433 -2.25892 -3.88411 1 -7.34456 0.021246 4
341 1 16.0888 17.8329 1.76297 -4.58991 -1.99561 0.829426 1 -7.34991 0.0160198 4
342 1 16.0457 19.6114 0 0 0 0 1 -3.30897 0 2
343 1 15.1543 18.72 0.891429 0 0 0 1 -6.97888 0 4
344 1 15.1955 20.4935 2.66687 -0.557708 2.02333 -4.45671 1 -7.32129 0.0151045 4
345 1 16.9256 18.72 2.66258 7.19329 -6.15048 0.519768 1 -7.32235 0.05592 4
346 1 16.9371 20.5029 0.891429 0 0 0 1 -7.0113 0 4
347 1 14.2799 17.8542 3.57985 -3.50962 -4.80947 3.44532 1 -7.36522 0.0294524 4
348 1 16.0309 19.5933 3.5846 -3.84937 -1.68139 -2.50241 1 -7.32246 0.0148802 4
304 1 21.3839 17.8165 3.57931 9.21853 4.92579 4.3411 1 -7.30199 0.0797265 4
351 1 17.8286 17.8286 0 0 0 0 1 -3.31959 0 2
352 1 17.8442 19.6144 1.75352 -0.0392145 -0.491722 1.90739 1 -7.40576 0.00241594 4
353 1 19.6105 17.7805 1.77954 -1.40185 5.43227 2.60775 1 -7.38599 0.0238234 4
354 1 19.6114 19.6114 0 0 0 0 1 -3.33861 0 2
355 1 18.72 18.72 0.891429 0 0 0 1 -7.00291 0 4
356 1 18.7173 20.5168 2.61844 4.43238 -2.92019 -1.65084 1 -7.2588 0.0192322 4
357 1 20.517 18.7023 2.66261 -0.642327 -4.68668 2.94205 1 -7.30459 0.0193159 4
358 1 20.5029 20.5029 0.891429 0 0 0 1 -6.98399 0 4
359 1 17.8119 17.8279 3.60659 1.7634 1.93462 -0.402794 1 -7.27217 0.00436607 4
360 1 19.6509 19.6189 3.60161 2.43121 -2.94745 2.77495 1 -7.27915 0.0138792 4
361 1 0.890613 0.89727 4.54229 1.16046 2.55319 -4.98218 1 -7.34304 0.0203456 4
362 1 0.888548 2.71399 6.29648 -5.24478 6.2116 1.11706 1 -7.30132 0.0419139 4
363 1 2.71683 0.879556 6.3089 1.6408 -3.58646 1.01252 1 -7.39522 0.0103199 4
364 1 2.68444 2.61967 4.47593 8.9241 -3.75463 3.05634 1 -7.28672 0.0641585 4
365 1 3.59573 1.76454 5.41989 -0.0958208 6.61979 1.40543 1 -7.28693 0.0285109 4
366 1 1.83169 3.58514 5.40959 -4.34351 7.96306 -6.78594 1 -7.31329 0.0798731 4
367 1 1.84498 1.79551 7.20144 0.967536 2.75182 -2.25204 1 -7.3369 0.00845277 4
368 1 0.922556 0.924953 8.04241 7.39667 2.14902 1.55208 1 -7.33555 0.0384273 4
369 1 2.7166 2.65862 8.11409 -5.13217 -7.08432 1.88152 1 -7.33035 0.0498357 4
370 1 3.60202 3.59629 7.21616 -2.34512 -4.23681 6.8013 1 -7.24585 0.043388 4
411 1 0.00673066 1.78948 5.4085 1.88793 -2.37689 -0.770902 1 -7.39181 0.00610488 4
371 1 0.0318055 3.60619 7.16293 -9.76543 -4.95949 5.1857 1 -7.37747 0.0914043 4
651 1 3.59054 0.0141982 7.14731 -7.2034 -3.19051 2.83293 1 -7.32056 0.0436283 4
710 1 0.04016 0.0277895 7.2223 -2.34075 1.11443 3.13798 1 -7.30232 0.0103124 4
652 1 1.83082 0.00965882 5.43269 2.3777 0.821243 0.599759 1 -7.34806 0.00416254 4
372 1 4.51742 0.863585 4.4602 -1.78266 -8.4878 7.75723 1 -7.31625 0.0842735 4
373 1 4.52328 2.65622 6.25833 0.7133 -0.443777 9.92659 1 -7.29814 0.0617714 4
374 1 6.25207 0.866922 6.25706 -6.04874 -2.48683 -4.71674 1 -7.33433 0.0404696 4
375 1 6.26443 2.67061 4.44698 0.442604 1.12797 0.582403 1 -7.36383 0.00112498 4
376 1 7.14951 1.7786 5.33972 9.28684 2.04721 6.57996 1 -7.32526 0.0832386 4
377 1 8.07706 0.901839 4.46464 -4.04939 -2.19123 9.63854 1 -7.31129 0.0710191 4
378 1 8.05698 2.67299 6.25855 -3.50718 2.97355 -4.36344 1 -7.31471 0.0250103 4
379 1 5.34156 3.54679 5.33624 0.449275 -5.93193 0.665685 1 -7.35781 0.0223033 4
380 1 5.39393 1.76351 7.15658 2.49569 -1.4281 -1.39335 1 -7.33464 0.00635459 4
381 1 4.48981 0.889904 8.08696 4.79555 -2.7849 6.09563 1 -7.36624 0.0422688 4
382 1 6.18841 2.68366 8.05975 -0.469716 -8.87056 3.41442 1 -7.29948 0.0563705 4
383 1 8.01106 0.920662 8.05809 -7.81797 0.264984 -2.73419 1 -7.34042 0.04274 4
384 1 7.11469 3.59672 7.11337 1.69473 0.491614 1.87908 1 -7.27976 0.00413586 4
665 1 7.17613 -0.000732738 7.16727 -7.19392 -2.77166 3.22184 1 -7.34819 0.0434546 4
386 1 9.79937 0.890412 6.26582 -2.3501 -2.90737 -5.56805 1 -7.33559 0.0279961 4
387 1 9.80047 2.64403 4.43072 -0.116862 -3.21175 -3.63494 1 -7.31875 0.014653 4
388 1 10.6941 1.75963 5.37185 6.63223 2.54158 -5.61852 1 -7.34629 0.0510476 4
389 1 11.5964 0.854041 4.48225 3.54747 1.67584 -9.36592 1 -7.35642 0.0641805 4
390 1 11.5866 2.68651 6.26235 3.76676 1.15473 -3.594 1 -7.34627 0.017701 4
391 1 8.92472 3.53852 5.37715 -9.17178 -6.44574 3.18873 1 -7.30521 0.0845486 4
392 1 12.52 3.55959 5.37771 -1.42914 -3.08384 2.34083 1 -7.33009 0.0106012 4
393 1 8.9377 1.83618 7.18448 -7.37623 3.6698 1.39603 1 -7.35066 0.043461 4
394 1 9.82678 2.70144 8.10066 -1.08432 -4.90197 -7.25169 1 -7.40774 0.0484198 4
395 1 12.4759 1.79582 7.12374 0.462942 -1.41009 1.19089 1 -7.31519 0.00225373 4
396 1 11.5534 0.861949 8.02327 0.805603 4.03599 4.93886 1 -7.32604 0.0257253 4
397 1 10.7411 3.54351 7.21003 1.78583 0.43277 3.14869 1 -7.33447 0.00827249 4
398 1 13.3647 0.879486 6.24993 0.905367 5.9919 -5.64254 1 -7.36671 0.042674 4
399 1 13.3917 2.64481 4.48304 1.82998 -10.2011 -0.528821 1 -7.42822 0.0670299 4
400 1 14.2612 1.77727 5.347 3.00039 5.60323 -0.582707 1 -7.33063 0.0253564 4
401 1 15.229 0.933731 4.492 0.125774 0.553456 -2.50369 1 -7.35737 0.00410216 4
402 1 15.147 2.66554 6.29602 14.6214 -5.77051 -1.35405 1 -7.24104 0.154933 4
403 1 16.9292 0.892097 6.2912 6.29961 -4.2236 -3.33668 1 -7.25091 0.0427342 4
404 1 16.959 2.69879 4.46283 0.0034445 -4.22836 -3.42254 1 -7.39428 0.0184194 4
405 1 16.0588 3.56195 5.37875 4.82352 -0.580738 -1.44782 1 -7.33141 0.0159962 4
406 1 13.3771 2.65976 8.07028 4.21566 7.47465 -3.27433 1 -7.35407 0.0525101 4
407 1 16.0551 1.75104 7.16867 1.7805 1.98483 -0.841343 1 -7.34654 0.00486586 4
408 1 15.1656 0.880032 8.05335 4.27729 -2.08852 6.5105 1 -7.3378 0.0404849 4
409 1 16.9602 2.7276 8.06862 -3.12134 -4.76978 -3.13778 1 -7.24918 0.026353 4
410 1 14.2601 3.57962 7.22469 -2.45047 -2.07209 6.45538 1 -7.29121 0.0323477 4
412 1 17.8249 1.81744 5.33837 -0.931472 -5.11224 0.39059 1 -7.29739 0.0169021 4
413 1 18.7645 0.905345 4.47832 6.30813 0.165865 3.50425 1 -7.27024 0.0324283 4
414 1 18.7456 2.65118 6.30732 1.04255 -6.82807 -0.384688 1 -7.29224 0.0297877 4
415 1 20.5303 0.922947 6.3115 -2.76036 -2.63616 -1.68994 1 -7.38595 0.0108457 4
416 1 20.5557 2.70242 4.45992 -0.205761 0.285491 -5.94855 1 -7.32676 0.0221018 4
417 1 19.6379 3.58178 5.40698 3.53181 -1.25696 7.65426 1 -7.25393 0.0452139 4
418 1 19.6416 1.76328 7.18186 -4.30192 4.45323 -2.5257 1 -7.35498 0.027833 4
419 1 18.7043 0.907491 8.0851 2.85865 2.44211 -1.6014 1 -7.36153 0.0103947 4
420 1 20.5183 2.71413 8.03843 -3.25899 -4.11911 -6.11033 1 -7.38615 0.0404105 4
421 1 17.8902 3.5854 7.17754 0.594941 1.59823 -3.97526 1 -7.35774 0.0116462 4
423 1 0.923606 4.45677 4.52781 -4.03075 -2.67758 2.4618 1 -7.28952 0.0183472 4
424 1 0.889263 6.2553 6.28798 0.644251 -2.40425 0.0620317 1 -7.33783 0.00385863 4
425 1 2.69669 4.4511 6.31426 -5.53259 -5.46088 11.7274 1 -7.39359 0.123218 4
426 1 2.70548 6.23251 4.46664 -0.581466 6.53772 -5.27617 1 -7.27454 0.0441411 4
427 1 3.57942 5.36677 5.37443 -1.47008 -2.46769 -1.41162 1 -7.3629 0.0063757 4
428 1 1.77892 7.16636 5.42766 4.17691 1.16186 4.82243 1 -7.31162 0.0261745 4
429 1 0.893928 8.02362 4.472 -4.30368 -1.23239 9.87105 1 -7.34206 0.0731215 4
430 1 2.65712 8.02719 6.29155 -7.24189 -1.93326 3.58168 1 -7.28704 0.0429542 4
431 1 1.7792 5.35691 7.18223 -5.81159 -2.87674 -3.27091 1 -7.32382 0.0328324 4
432 1 0.839532 4.4716 8.08002 4.08033 6.46995 -3.5869 1 -7.30057 0.0444257 4
433 1 2.62907 6.28252 8.04687 1.56412 -0.53452 -1.38423 1 -7.30753 0.00289322 4
434 1 0.881689 8.07486 8.03936 0.505243 2.41685 4.80931 1 -7.34012 0.018191 4