ITEM: TIMESTEP
49125475
ITEM: NUMBER OF ATOMS
3060
ITEM: BOX BOUNDS pp pp mm
0.0000000000000000e+00 2.1394294200000001e+01
0.0000000000000000e+00 2.1394294200000001e+01
-5.3491084073550004e-03 5.3485735499999997e+01
ITEM: ATOMS id type x y z vx vy vz c_clusts c_atom_pe c_atom_ke c_atom_coord
1 1 0 0 0 0 0 0 1 -3.34095 0 2
2 1 1.78286 1.78286 0 0 0 0 1 -3.34917 0 2
3 1 0.891429 0.891429 0.891429 0 0 0 1 -7.01997 0 4
4 1 0.929026 2.66974 2.69079 0.562109 9.33118 -2.78833 1 -7.36643 0.0592311 4
5 1 2.72843 0.927886 2.73862 3.21721 3.37375 -6.43477 1 -7.28908 0.0392993 4
6 1 2.67429 2.67429 0.891429 0 0 0 1 -6.99016 0 4
7 1 3.56572 0 0 0 0 0 1 -3.34377 0 2
8 1 3.60258 1.82751 1.81651 -1.87508 -0.246353 5.56789 1 -7.30291 0.0215223 4
9 1 0 3.56572 0 0 0 0 1 -3.34378 0 2
10 1 1.80907 3.61013 1.77039 2.76881 -2.01052 3.39054 1 -7.30185 0.0144429 4
11 1 3.56572 3.56572 0 0 0 0 1 -3.3192 0 2
12 1 1.76435 1.77928 3.58175 2.63691 2.14932 -5.19595 1 -7.33754 0.0240075 4
13 1 3.54942 3.52861 3.56797 4.77309 3.57408 -0.606268 1 -7.24005 0.02236 4
292 1 1.79587 0.00968006 1.77892 5.33631 -0.933388 -3.27153 1 -7.26952 0.0249284 4
56 1 0.016249 3.57548 3.59132 -8.87886 3.68859 -1.6439 1 -7.3549 0.059219 4
55 1 0.0298576 1.79619 1.78045 3.12253 0.685717 -0.404827 1 -7.3248 0.00646344 4
291 1 3.58993 0.0313549 3.62688 -6.09477 6.91948 -9.75714 1 -7.33737 0.112178 4
14 1 5.34857 1.78286 0 0 0 0 1 -3.33391 0 2
15 1 4.45714 0.891429 0.891429 0 0 0 1 -6.96657 0 4
16 1 4.49262 2.75157 2.65016 1.93075 -1.59054 6.06545 1 -7.28117 0.0267938 4
17 1 6.27767 0.893038 2.61959 4.70275 -4.62047 0.611522 1 -7.21079 0.0272863 4
18 1 6.24 2.67429 0.891429 0 0 0 1 -7.04086 0 4
19 1 7.13143 0 0 0 0 0 1 -3.3485 0 2
20 1 7.15501 1.7666 1.74996 -4.38882 -1.50078 2.95033 1 -7.4058 0.0188088 4
21 1 8.02286 0.891429 0.891429 0 0 0 1 -7.01123 0 4
22 1 8.0525 2.65152 2.65354 -8.88134 -9.13001 2.32482 1 -7.36281 0.104344 4
23 1 5.3678 3.59263 1.74747 -0.302618 1.70859 0.468001 1 -7.38767 0.00201036 4
24 1 7.13143 3.56572 0 0 0 0 1 -3.30011 0 2
25 1 5.34726 1.80114 3.58489 0.170869 -6.39827 0.908691 1 -7.26042 0.026013 4
26 1 7.12023 3.54603 3.56808 -3.65312 -0.695476 -6.64892 1 -7.33148 0.0361238 4
28 1 8.91429 1.78286 0 0 0 0 1 -3.3091 0 2
29 1 9.81458 0.909597 2.67195 -1.95821 -1.53229 2.509 1 -7.36263 0.0077664 4
30 1 9.80572 2.67429 0.891429 0 0 0 1 -6.98629 0 4
31 1 10.6971 0 0 0 0 0 1 -3.32919 0 2
32 1 10.7318 1.7922 1.76718 2.24926 -5.38253 3.3486 1 -7.34434 0.028161 4
33 1 12.48 1.78286 0 0 0 0 1 -3.34264 0 2
34 1 11.5886 0.891429 0.891429 0 0 0 1 -7.01348 0 4
35 1 11.6067 2.64586 2.69209 -7.03745 -1.61271 -3.71061 1 -7.31878 0.0410149 4
36 1 8.87942 3.57772 1.76708 -0.656092 1.67549 -0.162946 1 -7.33824 0.00203176 4
37 1 10.6971 3.56572 0 0 0 0 1 -3.32151 0 2
38 1 12.4895 3.56039 1.77609 -1.39587 -4.64007 -8.11635 1 -7.30757 0.0556162 4
39 1 8.94073 1.76236 3.53563 1.73973 -1.06986 -5.41571 1 -7.44873 0.020852 4
40 1 12.5011 1.74924 3.62363 -10.392 7.63891 2.26824 1 -7.33585 0.10674 4
41 1 10.7103 3.56219 3.55466 -7.32839 -3.84624 1.6432 1 -7.35126 0.0443161 4
320 1 8.95842 0.00837091 1.74127 -2.48175 -8.16388 2.62258 1 -7.36 0.0495986 4
319 1 10.7154 0.0301106 3.56178 4.89306 0.290717 2.7353 1 -7.30374 0.0196117 4
42 1 13.3798 0.912987 2.69191 2.70288 -4.03984 -5.18772 1 -7.31583 0.0314564 4
43 1 13.3714 2.67429 0.891429 0 0 0 1 -7.00608 0 4
44 1 14.2629 0 0 0 0 0 1 -3.34087 0 2
45 1 14.2929 1.82847 1.80569 -3.56938 3.13107 -1.03985 1 -7.34837 0.014705 4
46 1 16.0457 1.78286 0 0 0 0 1 -3.31184 0 2
47 1 15.1543 0.891429 0.891429 0 0 0 1 -7.00994 0 4
48 1 15.1582 2.70005 2.65455 1.86164 2.3969 0.152094 1 -7.31109 0.00574746 4
49 1 16.9705 0.899974 2.66703 -7.62155 2.96628 -0.0345792 1 -7.2958 0.0416329 4
50 1 16.9371 2.67429 0.891429 0 0 0 1 -7.01367 0 4
51 1 14.2629 3.56572 0 0 0 0 1 -3.32693 0 2
52 1 16.0342 3.56459 1.76982 -6.86268 5.46776 -1.92617 1 -7.38074 0.0502317 4
53 1 16.1231 1.81091 3.58379 -5.5842 4.90972 -0.193122 1 -7.29828 0.0344363 4
54 1 14.2371 3.53008 3.59824 -0.0936899 3.01755 -1.39109 1 -7.29717 0.0068775 4
336 1 14.3031 0.0457114 3.60047 -0.14812 -3.39067 2.37003 1 -7.25381 0.0106657 4
350 1 21.3969 0.0137042 3.64269 2.87365 -2.0021 -9.65031 1 -7.37336 0.0656005 4
57 1 17.8286 0 0 0 0 0 1 -3.32964 0 2
58 1 17.8387 1.76443 1.78044 -2.01665 -1.22136 -1.95431 1 -7.38315 0.00583706 4
59 1 19.6114 1.78286 0 0 0 0 1 -3.32734 0 2
60 1 18.72 0.891429 0.891429 0 0 0 1 -7.04291 0 4
61 1 18.6734 2.66196 2.66726 -7.89022 5.36785 1.07484 1 -7.34686 0.057403 4
62 1 20.5154 0.882671 2.70706 -2.54147 2.53695 -6.25109 1 -7.31247 0.0323483 4
63 1 20.5029 2.67429 0.891429 0 0 0 1 -7.00525 0 4
64 1 17.8286 3.56572 0 0 0 0 1 -3.33345 0 2
65 1 19.5742 3.5805 1.77661 -0.343196 0.560976 -0.542995 1 -7.28583 0.000452703 4
66 1 19.6387 1.80646 3.56103 1.96429 6.62295 -3.47809 1 -7.31668 0.0372329 4
67 1 17.7874 3.58735 3.54946 4.65908 0.467965 0.299612 1 -7.35316 0.0137032 4
68 1 19.6238 0.0193087 1.76133 -2.20862 2.27498 -2.1201 1 -7.36464 0.00905528 4
69 1 1.78286 5.34857 0 0 0 0 1 -3.32126 0 2
70 1 0.891429 4.45714 0.891429 0 0 0 1 -7.01614 0 4
71 1 0.915207 6.3026 2.71186 -6.76101 -7.75272 -11.7348 1 -7.34951 0.151574 4
72 1 2.67219 4.5396 2.66206 -3.93559 -6.47223 -3.33208 1 -7.25673 0.0426246 4
73 1 2.67429 6.24 0.891429 0 0 0 1 -6.99988 0 4
74 1 3.59131 5.36734 1.77239 -9.03461 -3.1746 4.10533 1 -7.33434 0.0675681 4
75 1 0 7.13143 0 0 0 0 1 -3.34085 0 2
76 1 1.78148 7.12687 1.81136 2.62349 2.52317 1.94318 1 -7.33803 0.0105968 4
77 1 0.891429 8.02286 0.891429 0 0 0 1 -7.02518 0 4
78 1 2.66822 8.00221 2.69707 -5.30896 -6.78932 2.125 1 -7.35385 0.0490444 4
79 1 3.56572 7.13143 0 0 0 0 1 -3.32479 0 2
80 1 1.7841 5.41487 3.5724 -0.319121 -6.45053 1.42962 1 -7.34017 0.0272342 4
81 1 3.56601 7.14376 3.57764 2.63046 -3.92773 -7.41882 1 -7.40321 0.0481666 4
128 1 0.0102598 5.37982 1.79094 0.0784837 -5.57864 -3.76709 1 -7.31412 0.0282073 4
83 1 5.34857 5.34857 0 0 0 0 1 -3.30562 0 2
84 1 4.45714 4.45714 0.891429 0 0 0 1 -7.0642 0 4
85 1 4.45895 6.27938 2.70181 0.922044 5.2738 2.06112 1 -7.30589 0.0204849 4
86 1 6.22662 4.43313 2.70898 5.52029 2.3919 -0.0411394 1 -7.37251 0.0225297 4
87 1 6.24 6.24 0.891429 0 0 0 1 -7.00199 0 4
88 1 7.10426 5.314 1.79536 0.930046 0.185693 4.82406 1 -7.33038 0.0150446 4
89 1 8.02286 4.45714 0.891429 0 0 0 1 -7.02812 0 4
90 1 8.0164 6.22787 2.6385 0.400847 7.43187 -13.3608 1 -7.27662 0.145589 4
91 1 5.36468 7.13545 1.77641 -4.99328 -2.2943 -0.750284 1 -7.34173 0.0191456 4
92 1 4.45714 8.02286 0.891429 0 0 0 1 -7.01136 0 4
93 1 6.32656 8.03983 2.65319 7.85706 -4.74734 7.34219 1 -7.28918 0.0860058 4
94 1 7.13143 7.13143 0 0 0 0 1 -3.34526 0 2
95 1 8.02286 8.02286 0.891429 0 0 0 1 -6.9951 0 4
96 1 5.34682 5.32042 3.59798 1.16948 -2.42221 8.40762 1 -7.34803 0.0485013 4
97 1 7.13118 7.11766 3.58381 -0.987254 5.77765 -2.21524 1 -7.31914 0.0244384 4
98 1 8.91429 5.34857 0 0 0 0 1 -3.33885 0 2
99 1 9.81049 4.47346 2.66813 8.99769 -2.69136 -1.1298 1 -7.33453 0.0556936 4
100 1 9.80572 6.24 0.891429 0 0 0 1 -6.99263 0 4
101 1 10.6948 5.36954 1.76939 7.28646 1.41551 3.96612 1 -7.36541 0.0440841 4
102 1 12.48 5.34857 0 0 0 0 1 -3.31825 0 2
103 1 11.5886 4.45714 0.891429 0 0 0 1 -7.01197 0 4
104 1 11.5891 6.22079 2.66173 -1.39245 -0.166274 2.61166 1 -7.32224 0.00546946 4
105 1 8.85374 7.12146 1.78664 5.70377 3.83278 -5.15793 1 -7.36009 0.0459521 4
106 1 9.78214 7.98376 2.67128 -5.41647 -0.506966 0.959847 1 -7.33993 0.0189942 4
107 1 10.6971 7.13143 0 0 0 0 1 -3.33511 0 2
108 1 12.473 7.15705 1.73145 0.27049 5.08229 -0.0368139 1 -7.32097 0.0161234 4
109 1 11.5886 8.02286 0.891429 0 0 0 1 -7.04298 0 4
110 1 8.9305 5.3454 3.58134 -4.69898 1.48185 -8.18836 1 -7.33759 0.0568433 4
111 1 12.5203 5.32588 3.5422 4.79655 -5.66358 -0.607497 1 -7.34427 0.0345149 4
112 1 10.6927 7.07316 3.55284 -0.868904 -2.61178 -2.9244 1 -7.32475 0.0100388 4
113 1 13.3791 4.48529 2.68821 -5.90219 8.21928 -4.30065 1 -7.29445 0.0752438 4
114 1 13.3714 6.24 0.891429 0 0 0 1 -6.96764 0 4
115 1 14.3104 5.31943 1.77383 5.47615 -5.49618 9.15409 1 -7.36038 0.0896254 4
116 1 16.0457 5.34857 0 0 0 0 1 -3.34609 0 2
117 1 15.1543 4.45714 0.891429 0 0 0 1 -7.051 0 4
118 1 15.1756 6.18559 2.7008 -3.80437 -0.938766 -3.13723 1 -7.29836 0.0156831 4
119 1 16.9236 4.44185 2.68969 -0.913233 1.53445 -3.44848 1 -7.34828 0.00938654 4
120 1 16.9371 6.24 0.891429 0 0 0 1 -7.02099 0 4
121 1 13.3749 8.00614 2.61285 1.03545 -4.77496 2.29073 1 -7.30605 0.018125 4
122 1 14.2629 7.13143 0 0 0 0 1 -3.31468 0 2
123 1 16.0771 7.14851 1.75193 2.7212 -4.50528 -4.58589 1 -7.30557 0.0303326 4
124 1 15.1543 8.02286 0.891429 0 0 0 1 -7.02889 0 4
125 1 16.9471 8.00439 2.63213 6.09156 5.31635 7.52572 1 -7.32927 0.0759405 4
126 1 16.0869 5.33741 3.55995 11.2194 -3.16179 -5.19694 1 -7.33628 0.101381 4
127 1 14.3098 7.08528 3.55384 -2.60637 2.17935 -4.90883 1 -7.30459 0.0221829 4
82 1 21.4001 7.16112 3.5962 8.43728 -2.26908 -5.49925 1 -7.3856 0.066337 4
129 1 17.8216 5.36922 1.78536 0.772436 0.417518 0.479789 1 -7.32612 0.000623158 4
130 1 19.6114 5.34857 0 0 0 0 1 -3.33129 0 2
131 1 18.72 4.45714 0.891429 0 0 0 1 -7.0167 0 4
132 1 18.7076 6.23728 2.70379 -2.89743 1.57445 1.64845 1 -7.3487 0.00845964 4
133 1 20.509 4.48688 2.71688 3.48222 1.49144 1.20256 1 -7.33485 0.00983209 4
134 1 20.5029 6.24 0.891429 0 0 0 1 -6.99387 0 4
135 1 17.8286 7.13143 0 0 0 0 1 -3.30782 0 2
136 1 19.5607 7.11711 1.7808 -1.79438 -4.98645 5.44984 1 -7.30278 0.0359671 4
137 1 18.72 8.02286 0.891429 0 0 0 1 -7.01422 0 4
138 1 20.5223 8.00341 2.69596 4.3752 1.04718 0.492164 1 -7.29446 0.012748 4
139 1 19.6272 5.38285 3.57714 -1.99817 -0.457616 -7.28036 1 -7.38203 0.0356063 4
140 1 17.8119 7.13635 3.55703 -3.44816 -2.34914 -4.35151 1 -7.33617 0.0226214 4
141 1 1.78286 8.91429 0 0 0 0 1 -3.34038 0 2
142 1 0.893365 9.7847 2.70525 -1.00032 6.41357 -4.30311 1 -7.32115 0.0377509 4
143 1 2.67429 9.80572 0.891429 0 0 0 1 -7.05889 0 4
144 1 3.54667 8.92217 1.76241 3.34891 -4.36435 3.02049 1 -7.35877 0.024515 4
145 1 0 10.6971 0 0 0 0 1 -3.33335 0 2
146 1 1.80989 10.6922 1.74765 2.70304 -0.874718 -1.34686 1 -7.26474 0.00615306 4
147 1 1.78286 12.48 0 0 0 0 1 -3.31165 0 2
148 1 0.891429 11.5886 0.891429 0 0 0 1 -7.02324 0 4
149 1 2.7344 11.5903 2.69732 7.83265 -0.237611 -2.70906 1 -7.30344 0.0427893 4
150 1 3.56572 10.6971 0 0 0 0 1 -3.32149 0 2
151 1 3.54251 12.502 1.79348 6.80103 -0.0387585 0.2404 1 -7.31052 0.0288266 4
152 1 1.77664 8.89499 3.57448 -10.8144 -3.33048 -2.78307 1 -7.38441 0.084518 4
153 1 1.76101 12.4811 3.52591 4.54059 0.354066 -2.13264 1 -7.29526 0.0157415 4
154 1 3.58617 10.6892 3.62588 1.77541 -0.729072 7.96849 1 -7.39706 0.0418149 4
205 1 0.021523 8.88733 1.77539 7.79864 -5.71945 -1.6322 1 -7.30387 0.0598743 4
204 1 0.0274687 12.5029 1.75508 12.8013 -1.76385 -1.01066 1 -7.37528 0.104571 4
155 1 5.34857 8.91429 0 0 0 0 1 -3.33886 0 2
156 1 4.45082 9.77203 2.70399 3.97527 0.275594 -3.10582 1 -7.31213 0.0158873 4
157 1 6.24 9.80572 0.891429 0 0 0 1 -7.01295 0 4
158 1 7.16331 8.94044 1.81268 5.5827 2.45907 2.27564 1 -7.33225 0.026386 4
159 1 8.07538 9.83108 2.68507 -0.28466 2.60953 -0.273857 1 -7.28015 0.00433562 4
160 1 5.36085 10.667 1.78123 -2.10393 5.21898 -5.45847 1 -7.31024 0.0382538 4
161 1 5.34857 12.48 0 0 0 0 1 -3.34889 0 2
162 1 4.45714 11.5886 0.891429 0 0 0 1 -6.96564 0 4
163 1 6.26726 11.5916 2.64893 0.00610528 -2.57983 0.0279789 1 -7.28432 0.00414308 4
164 1 7.13143 10.6971 0 0 0 0 1 -3.34756 0 2
165 1 7.16523 12.5069 1.78139 2.27373 2.2913 -4.45657 1 -7.38334 0.0188476 4
166 1 8.02286 11.5886 0.891429 0 0 0 1 -7.03708 0 4
167 1 5.40344 8.91703 3.56938 -1.6048 7.88435 0.596034 1 -7.31793 0.040516 4
168 1 5.33698 12.4654 3.574 11.392 0.221784 -4.03349 1 -7.27906 0.0909335 4
169 1 7.12648 10.7172 3.62826 -4.65408 -5.03581 -5.26409 1 -7.26863 0.0465142 4
170 1 8.91429 8.91429 0 0 0 0 1 -3.3271 0 2
171 1 9.80572 9.80572 0.891429 0 0 0 1 -6.93091 0 4
172 1 10.6948 8.86377 1.80526 3.26547 -2.56761 0.474353 1 -7.35595 0.0108806 4
173 1 12.48 8.91429 0 0 0 0 1 -3.32656 0 2
174 1 11.5475 9.78181 2.66282 -1.65663 -2.42905 -6.81188 1 -7.39622 0.0342623 4
175 1 8.86916 10.7388 1.78173 -4.07851 -1.94089 0.444696 1 -7.29323 0.0128214 4
176 1 8.91429 12.48 0 0 0 0 1 -3.34192 0 2
177 1 9.77118 11.6061 2.73374 -5.43643 0.0496749 -3.73656 1 -7.24346 0.0270874 4
178 1 10.6971 10.6971 0 0 0 0 1 -3.33047 0 2
179 1 10.6834 12.512 1.76184 -2.55822 -1.53268 0.64402 1 -7.30146 0.00579378 4
180 1 12.4438 10.6916 1.78255 -0.610364 0.971245 2.2649 1 -7.39696 0.00401194 4
181 1 12.48 12.48 0 0 0 0 1 -3.33454 0 2
182 1 11.5886 11.5886 0.891429 0 0 0 1 -7.03807 0 4
183 1 8.93037 8.90972 3.59568 -2.53758 4.56918 -10.2346 1 -7.37384 0.0822001 4
184 1 12.4406 8.90281 3.52072 -2.13574 -8.49065 -7.46535 1 -7.33415 0.0823992 4
185 1 8.87459 12.4881 3.61943 3.05868 -3.14224 4.10692 1 -7.35954 0.0224671 4
186 1 10.6779 10.6651 3.59456 -3.70326 9.52345 0.836423 1 -7.38817 0.0654231 4
187 1 12.4954 12.4218 3.56894 4.31009 -6.33578 1.0405 1 -7.23957 0.0372221 4
188 1 13.3714 9.80572 0.891429 0 0 0 1 -6.97383 0 4
189 1 14.2613 8.89995 1.77815 -0.480719 -6.91506 2.80419 1 -7.35593 0.0348015 4
190 1 16.0457 8.91429 0 0 0 0 1 -3.33643 0 2
191 1 15.1836 9.84141 2.66415 3.67287 -7.82381 5.75172 1 -7.25565 0.0670877 4
192 1 16.9371 9.80572 0.891429 0 0 0 1 -7.0093 0 4
193 1 13.3721 11.534 2.66332 4.6643 3.09373 2.47672 1 -7.33155 0.0233167 4
194 1 14.2629 10.6971 0 0 0 0 1 -3.35481 0 2
195 1 14.2467 12.4786 1.79488 6.37763 2.66324 9.79557 1 -7.37185 0.0894552 4
196 1 16.0869 10.7554 1.77152 -5.5796 0.720846 -2.89725 1 -7.34958 0.0249254 4
197 1 16.0457 12.48 0 0 0 0 1 -3.32753 0 2
198 1 15.1543 11.5886 0.891429 0 0 0 1 -6.97379 0 4
199 1 16.9495 11.6271 2.6652 -2.03596 4.50707 -1.38646 1 -7.34694 0.0164203 4
200 1 16.0703 8.94498 3.5988 1.8475 0.64473 2.00167 1 -7.25978 0.0048771 4
201 1 14.2827 10.6769 3.60598 -7.08349 2.94729 1.45418 1 -7.33054 0.0379537 4
202 1 16.0171 12.511 3.53396 -2.989 3.50552 5.11388 1 -7.30561 0.0294872 4
203 1 21.3752 10.677 3.53596 1.94089 4.05522 -1.95421 1 -7.37515 0.0149574 4
206 1 17.8167 8.92291 1.76859 -3.42298 -2.43358 9.24379 1 -7.33704 0.0641639 4
207 1 19.6114 8.91429 0 0 0 0 1 -3.33324 0 2
208 1 18.7506 9.84116 2.62066 5.52994 4.67351 -2.96449 1 -7.32001 0.0380987 4
209 1 20.5029 9.80572 0.891429 0 0 0 1 -6.98653 0 4
210 1 17.8286 10.6971 0 0 0 0 1 -3.31787 0 2
211 1 17.8602 12.5022 1.76679 -5.69963 -6.61775 8.7817 1 -7.32807 0.0954793 4
212 1 19.5876 10.7073 1.7636 1.55108 3.17904 7.10486 1 -7.38699 0.0392074 4
213 1 19.6114 12.48 0 0 0 0 1 -3.34061 0 2
214 1 18.72 11.5886 0.891429 0 0 0 1 -7.04389 0 4
215 1 20.5106 11.5762 2.60888 6.65181 2.03606 2.1973 1 -7.33804 0.0331257 4
216 1 19.637 8.94877 3.52847 -6.08143 3.72552 3.35252 1 -7.32576 0.0386543 4
217 1 17.8041 10.7372 3.54616 7.37391 -4.17612 4.01354 1 -7.32825 0.0547256 4
218 1 19.6526 12.4957 3.52517 0.216288 0.741608 -4.26522 1 -7.29015 0.0116947 4
219 1 0.888103 13.3703 2.656 4.30447 -0.671599 0.540617 1 -7.3868 0.0119953 4
220 1 2.67429 13.3714 0.891429 0 0 0 1 -7.05181 0 4
221 1 0 14.2629 0 0 0 0 1 -3.29263 0 2
222 1 1.78312 14.256 1.76239 4.47322 -4.05146 -1.2974 1 -7.37305 0.0237189 4
223 1 1.78286 16.0457 0 0 0 0 1 -3.33054 0 2
224 1 0.891429 15.1543 0.891429 0 0 0 1 -7.03174 0 4
225 1 0.879271 16.9539 2.66239 2.29145 4.31833 -4.35208 1 -7.36977 0.0266643 4
226 1 2.66156 15.1667 2.65305 -1.11632 7.91662 -7.22229 1 -7.34954 0.0722515 4
227 1 2.67429 16.9371 0.891429 0 0 0 1 -6.98953 0 4
228 1 3.56572 14.2629 0 0 0 0 1 -3.34799 0 2
229 1 3.59227 16.0521 1.80137 0.692514 1.16466 6.96905 1 -7.34496 0.0313726 4
230 1 1.77526 16.0899 3.55313 -3.27527 4.18763 -0.0616071 1 -7.35402 0.0175944 4
231 1 3.53974 14.3254 3.56067 5.2338 1.60177 -0.678342 1 -7.31251 0.0189333 4
233 1 0.00165081 16.0259 1.74474 5.61077 3.34795 0.886365 1 -7.34331 0.0270601 4
232 1 0.0164221 14.3029 3.55025 1.29927 -0.0737426 5.24792 1 -7.30031 0.0181961 4
234 1 4.47495 13.4127 2.68636 -2.16944 -8.52925 -5.30782 1 -7.30734 0.0657454 4
235 1 6.24 13.3714 0.891429 0 0 0 1 -7.03645 0 4
236 1 8.05121 13.3745 2.68166 7.03956 -0.542541 -3.53761 1 -7.36585 0.0388172 4
237 1 5.37366 14.2535 1.78796 -9.58107 0.438494 4.45973 1 -7.37491 0.069636 4
238 1 5.34857 16.0457 0 0 0 0 1 -3.32943 0 2
239 1 4.45714 15.1543 0.891429 0 0 0 1 -6.99054 0 4
240 1 4.45347 16.9213 2.67796 -4.63579 4.57959 8.02893 1 -7.33261 0.0665541 4
241 1 6.24712 15.1774 2.65233 2.49943 -1.11589 -6.96301 1 -7.29247 0.0348408 4
242 1 6.24 16.9371 0.891429 0 0 0 1 -6.96579 0 4
243 1 7.13143 14.2629 0 0 0 0 1 -3.34495 0 2
244 1 7.16505 16.0617 1.78069 -3.33229 1.47376 -4.0419 1 -7.38392 0.018432 4
245 1 8.02286 15.1543 0.891429 0 0 0 1 -7.03108 0 4
246 1 8.02093 16.9604 2.65104 -6.35385 -2.35696 3.11229 1 -7.34301 0.034615 4
247 1 5.32595 16.0579 3.57842 -9.46764 -8.65381 3.33689 1 -7.37443 0.109335 4
248 1 7.16029 14.2697 3.59764 -1.95442 4.22753 -7.3663 1 -7.27759 0.0472759 4
249 1 9.80572 13.3714 0.891429 0 0 0 1 -6.99154 0 4
250 1 11.5753 13.3976 2.65656 2.07867 3.90198 -5.62679 1 -7.27297 0.0318726 4
251 1 8.92582 14.3079 1.80011 7.65772 -1.72968 3.31865 1 -7.349 0.0452167 4
252 1 8.91429 16.0457 0 0 0 0 1 -3.32095 0 2
253 1 9.82241 15.1761 2.67465 8.5424 2.95362 -6.0175 1 -7.34135 0.0733882 4
254 1 9.80572 16.9371 0.891429 0 0 0 1 -7.03447 0 4
255 1 10.6971 14.2629 0 0 0 0 1 -3.32789 0 2
256 1 10.6919 16.06 1.78142 -9.40072 -0.691429 -2.14305 1 -7.39967 0.0581622 4
257 1 12.4695 14.3012 1.77241 -0.125521 1.38086 5.47583 1 -7.37638 0.0198599 4
258 1 12.48 16.0457 0 0 0 0 1 -3.32208 0 2
259 1 11.5886 15.1543 0.891429 0 0 0 1 -7.03015 0 4
260 1 11.5595 16.9279 2.65546 12.1914 3.84478 1.23391 1 -7.28404 0.10266 4
261 1 8.92382 16.0573 3.59769 14.1326 7.8904 9.89767 1 -7.29194 0.224045 4
262 1 10.7039 14.2457 3.59549 11.6771 7.69205 -7.01173 1 -7.35649 0.152299 4
263 1 12.5278 16.0094 3.56662 -3.73068 -3.48022 6.15136 1 -7.31313 0.0397538 4
264 1 13.3714 13.3714 0.891429 0 0 0 1 -7.00755 0 4
265 1 15.1664 13.3535 2.64137 2.58969 -3.1148 -5.8494 1 -7.34879 0.0315097 4
266 1 16.9371 13.3714 0.891429 0 0 0 1 -7.00284 0 4
267 1 13.3506 15.1228 2.65546 -3.59981 7.53626 5.2106 1 -7.3467 0.0603157 4
268 1 13.3714 16.9371 0.891429 0 0 0 1 -7.02482 0 4
269 1 14.2629 14.2629 0 0 0 0 1 -3.32652 0 2
270 1 14.2694 16.0294 1.744 -6.58993 -0.471916 4.91282 1 -7.31829 0.0421916 4
271 1 16.061 14.2695 1.7663 4.54853 2.20001 -3.12151 1 -7.39762 0.0219549 4
272 1 16.0457 16.0457 0 0 0 0 1 -3.333 0 2
273 1 15.1543 15.1543 0.891429 0 0 0 1 -7.03736 0 4
274 1 15.1569 16.9448 2.68207 3.67598 1.36642 -13.0135 1 -7.24205 0.114982 4
275 1 16.9231 15.1358 2.66253 8.9446 -7.67721 -6.07606 1 -7.40709 0.109462 4
276 1 16.9371 16.9371 0.891429 0 0 0 1 -7.05428 0 4
277 1 14.2702 14.251 3.55568 -5.58937 2.96662 8.37715 1 -7.34185 0.0686029 4
278 1 16.0588 16.0157 3.56519 3.20512 0.863111 1.83301 1 -7.32486 0.00894905 4
279 1 18.7537 13.4297 2.66721 -0.645262 -1.58363 5.37079 1 -7.32975 0.0197743 4
280 1 20.5029 13.3714 0.891429 0 0 0 1 -6.98769 0 4
281 1 17.8286 14.2629 0 0 0 0 1 -3.32368 0 2
282 1 17.7939 16.059 1.77846 6.4824 6.64754 3.22445 1 -7.3557 0.0601316 4
283 1 19.6301 14.322 1.77955 -6.57813 0.00986612 0.547587 1 -7.35836 0.0271202 4
284 1 19.6114 16.0457 0 0 0 0 1 -3.30593 0 2
285 1 18.72 15.1543 0.891429 0 0 0 1 -6.99357 0 4
286 1 18.7087 16.9361 2.64037 0.55202 -10.1368 2.78972 1 -7.35174 0.068991 4
287 1 20.5278 15.1668 2.63381 -10.7991 -7.06216 0.0394191 1 -7.3156 0.103631 4
288 1 20.5029 16.9371 0.891429 0 0 0 1 -7.02049 0 4
289 1 17.8227 14.2606 3.53815 3.90961 -0.978203 -0.0909718 1 -7.33647 0.0101146 4
290 1 19.5832 16.0983 3.54624 4.55128 -5.7109 -1.45005 1 -7.29199 0.0345018 4
293 1 0 17.8286 0 0 0 0 1 -3.33621 0 2
294 1 1.75191 17.8243 1.77787 -1.0328 5.16645 -4.70753 1 -7.3822 0.0310713 4
295 1 1.78286 19.6114 0 0 0 0 1 -3.34273 0 2
296 1 0.891429 18.72 0.891429 0 0 0 1 -7.01405 0 4
297 1 0.880156 20.5509 2.7259 0.100776 2.72221 -0.705278 1 -7.28801 0.00492838 4
298 1 2.63186 18.7167 2.6453 -6.40514 -2.13677 0.0935881 1 -7.41514 0.0283828 4
299 1 2.67429 20.5029 0.891429 0 0 0 1 -7.04379 0 4
300 1 3.56572 17.8286 0 0 0 0 1 -3.32165 0 2
301 1 3.51312 19.6198 1.76958 0.232294 7.76294 9.44302 1 -7.34709 0.0930451 4
302 1 1.80035 19.6106 3.53809 -3.06062 1.24358 0.192015 1 -7.26389 0.00681603 4
303 1 3.52155 17.8584 3.56142 3.74609 0.0668804 -0.727865 1 -7.32512 0.00906719 4
27 1 5.31965 21.3523 1.7986 4.30867 2.97895 0.671181 1 -7.31208 0.017359 4
306 1 7.14549 21.4041 3.5815 6.25846 7.81719 -5.53254 1 -7.26634 0.0814667 4
307 1 5.31689 17.857 1.77251 -1.27617 5.91368 4.26965 1 -7.30099 0.0341277 4
308 1 5.34857 19.6114 0 0 0 0 1 -3.3363 0 2
309 1 4.45714 18.72 0.891429 0 0 0 1 -7.01406 0 4
310 1 4.42961 20.5082 2.68982 3.19918 -7.72162 2.95468 1 -7.36091 0.0489154 4
311 1 6.25521 18.7737 2.68732 1.4997 -7.32773 -4.37748 1 -7.29246 0.0467486 4
312 1 6.24 20.5029 0.891429 0 0 0 1 -6.99945 0 4
313 1 7.13143 17.8286 0 0 0 0 1 -3.32155 0 2
314 1 7.13204 19.6363 1.79207 2.46903 -1.57985 2.84328 1 -7.38762 0.0103798 4
315 1 8.02286 18.72 0.891429 0 0 0 1 -6.99191 0 4
316 1 8.05906 20.501 2.63161 -1.43389 -6.52741 -5.53735 1 -7.26356 0.0468845 4
317 1 5.30048 19.64 3.58608 2.2132 -5.2257 -2.56953 1 -7.29371 0.0241555 4
318 1 7.13184 17.8478 3.58044 2.94823 4.84623 -1.78274 1 -7.40027 0.0220066 4
321 1 12.4964 21.371 1.79466 -5.12744 2.16193 3.2784 1 -7.37722 0.0259629 4
322 1 8.91303 17.8206 1.78173 -9.21787 -2.19103 -3.9482 1 -7.38655 0.0655776 4
323 1 8.91429 19.6114 0 0 0 0 1 -3.33288 0 2
324 1 9.79289 18.706 2.67593 -0.418385 -2.60864 5.32085 1 -7.32489 0.0219664 4
325 1 9.80572 20.5029 0.891429 0 0 0 1 -7.05539 0 4
326 1 10.6971 17.8286 0 0 0 0 1 -3.32595 0 2
327 1 10.6672 19.622 1.75762 -1.35799 -0.101198 -3.15566 1 -7.29162 0.00735245 4
328 1 12.496 17.8215 1.77561 -2.54215 4.19784 -6.13694 1 -7.38452 0.0384325 4
329 1 12.48 19.6114 0 0 0 0 1 -3.33482 0 2
330 1 11.5886 18.72 0.891429 0 0 0 1 -6.96775 0 4
331 1 11.6537 20.493 2.66381 0.58679 -3.77576 0.718912 1 -7.29 0.00940953 4
332 1 8.9381 19.6403 3.56618 7.16095 -6.55022 -4.06961 1 -7.31257 0.0689315 4
333 1 10.7165 17.8334 3.56624 0.111497 -3.96789 2.76713 1 -7.37456 0.0145732 4
334 1 12.4824 19.5848 3.56734 1.39488 4.39114 7.27014 1 -7.39808 0.0461111 4
335 1 16.0508 21.3831 1.76161 0.0290455 0.103287 2.72137 1 -7.36154 0.00461675 4
337 1 13.3716 18.7059 2.64871 0.513541 -9.64785 -1.2237 1 -7.33992 0.0590323 4
338 1 13.3714 20.5029 0.891429 0 0 0 1 -7.03335 0 4
339 1 14.2629 17.8286 0 0 0 0 1 -3.33593 0 2
340 1 14.2768 19.6286 1.76578 -3.73433 -2.25892 -3.88411 1 -7.3527 0.021246 4
341 1 16.0888 17.8329 1.76297 -4.58991 -1.99561 0.829426 1 -7.32172 0.0160198 4
342 1 16.0457 19.6114 0 0 0 0 1 -3.30883 0 2
343 1 15.1543 18.72 0.891429 0 0 0 1 -6.98278 0 4
344 1 15.1935 20.4912 2.67757 2.32427 0.044754 -5.52768 1 -7.31883 0.0223821 4
345 1 16.9138 18.7331 2.66321 3.75904 -6.08423 -1.07991 1 -7.29654 0.0325619 4
346 1 16.9371 20.5029 0.891429 0 0 0 1 -7.00266 0 4
347 1 14.2866 17.8615 3.5713 -2.69562 -1.97312 4.36879 1 -7.37954 0.0188258 4
348 1 16.0421 19.5981 3.58996 -6.59098 -2.94715 -2.52099 1 -7.34422 0.0364008 4
349 1 17.8599 21.3778 3.60041 -0.163036 10.4139 -4.43766 1 -7.2955 0.0797761 4
304 1 21.365 17.8083 3.56944 8.32547 2.59091 4.90636 1 -7.30296 0.062304 4
305 1 21.3861 19.6069 1.79669 10.1173 -4.04836 8.84467 1 -7.33703 0.122604 4
351 1 17.8286 17.8286 0 0 0 0 1 -3.31913 0 2
352 1 17.8425 19.6154 1.75216 1.69201 -0.492529 -0.657436 1 -7.39851 0.00220196 4
353 1 19.6105 17.7805 1.77954 -1.40185 5.43227 2.60775 1 -7.37626 0.0238234 4
354 1 19.6114 19.6114 0 0 0 0 1 -3.33541 0 2
355 1 18.72 18.72 0.891429 0 0 0 1 -7.00421 0 4
356 1 18.7102 20.5214 2.62689 2.18319 -1.36116 -6.1741 1 -7.26924 0.0278465 4
357 1 20.5166 18.7122 2.65916 1.14456 -4.5749 0.377678 1 -7.31632 0.0139314 4
358 1 20.5029 20.5029 0.891429 0 0 0 1 -7.0132 0 4
359 1 17.8102 17.825 3.60411 -0.181321 0.56582 2.80527 1 -7.26212 0.00511793 4
360 1 19.6415 19.6236 3.5935 6.3139 -1.54673 4.77681 1 -7.29933 0.0405047 4
361 1 0.889585 0.891773 4.54983 -0.125078 2.53115 -2.11321 1 -7.35522 0.00677701 4
362 1 0.903408 2.69947 6.29405 -8.62501 7.29147 1.0721 1 -7.33416 0.0801098 4
363 1 2.71279 0.889603 6.30554 2.0774 -5.57114 2.1348 1 -7.39963 0.0248414 4
364 1 2.6667 2.6314 4.47141 7.62584 -6.99924 1.16856 1 -7.28803 0.0675385 4
365 1 3.59654 1.75037 5.41295 -0.563755 6.37986 5.22717 1 -7.26864 0.0425389 4
366 1 1.83855 3.56612 5.42194 -2.0825 9.6059 -4.59055 1 -7.33724 0.0732491 4
367 1 1.84067 1.7899 7.2043 3.03729 2.44185 -0.417497 1 -7.34785 0.00956174 4
368 1 0.906963 0.918867 8.04112 7.05675 3.5428 -0.35071 1 -7.35247 0.0388843 4
369 1 2.7279 2.67569 8.10737 -5.23603 -8.88693 4.34569 1 -7.33362 0.0779766 4
370 1 3.60684 3.60212 7.19974 -2.25212 -1.33745 8.57619 1 -7.23421 0.0500504 4
411 1 0.00417798 1.79637 5.4098 0.422854 -3.99992 -0.536636 1 -7.40313 0.0102489 4
371 1 0.0477787 3.615 7.1534 -5.13494 -3.14244 3.7647 1 -7.35105 0.0313799 4
651 1 3.60526 0.0185609 7.14444 -6.32401 -0.903728 -0.11368 1 -7.30226 0.0254091 4
710 1 0.043006 0.0233793 7.21013 -0.336548 3.05688 8.17868 1 -7.32294 0.0475213 4
652 1 1.82316 0.00696325 5.42917 4.70844 1.70271 2.71262 1 -7.35864 0.0201834 4
372 1 4.51738 0.884247 4.44628 1.84143 -10.6834 5.02202 1 -7.34768 0.088849 4
373 1 4.51781 2.65824 6.23991 4.3652 -1.43067 7.28178 1 -7.27148 0.046138 4
374 1 6.26647 0.872588 6.26601 -7.25292 -2.84496 -3.62552 1 -7.33637 0.0459618 4
375 1 6.26157 2.66793 4.44716 2.25696 1.23764 -0.768269 1 -7.38583 0.00449134 4
376 1 7.13189 1.77458 5.32792 7.06215 1.70322 4.45511 1 -7.29488 0.0452024 4
377 1 8.08218 0.904562 4.44433 -0.562325 -0.318116 9.24388 1 -7.31803 0.0534457 4
378 1 8.06112 2.66789 6.26725 -0.485401 1.74202 -3.59725 1 -7.2843 0.0100898 4
379 1 5.34261 3.56017 5.33607 -1.37669 -6.50845 -0.468598 1 -7.35139 0.0276822 4
380 1 5.38568 1.76711 7.15972 5.08535 -2.0809 -1.50633 1 -7.33954 0.020204 4
381 1 4.47986 0.895242 8.07166 4.47917 -2.20107 8.06943 1 -7.3646 0.0560329 4
382 1 6.19563 2.70272 8.05099 -6.20668 -8.91638 4.80794 1 -7.32818 0.0878499 4
383 1 8.03042 0.918843 8.06385 -10.3125 1.42517 -2.58232 1 -7.33329 0.0716086 4
384 1 7.1124 3.59286 7.11225 0.38083 3.11246 -0.85794 1 -7.30143 0.0065781 4
665 1 7.1881 0.0041529 7.1599 -4.0271 -1.83641 3.55571 1 -7.36809 0.0200627 4
386 1 9.80452 0.895598 6.27968 -2.36711 -1.83594 -7.30772 1 -7.34289 0.0388249 4
387 1 9.80206 2.6523 4.4403 -1.43925 -4.49099 -5.26729 1 -7.32239 0.0311118 4
388 1 10.6811 1.75551 5.38271 5.45443 1.22849 -4.60218 1 -7.35398 0.0326401 4
389 1 11.5895 0.852781 4.50206 2.88704 -0.490678 -9.01706 1 -7.34931 0.0559456 4
390 1 11.58 2.68253 6.26943 2.40873 2.56139 -2.97626 1 -7.33601 0.0132084 4
391 1 8.94395 3.55359 5.36791 -8.70969 -7.61212 5.28218 1 -7.31298 0.100649 4
392 1 12.5205 3.56605 5.37254 1.15404 -2.93848 2.45211 1 -7.35348 0.00994594 4
393 1 8.9518 1.82516 7.18125 -5.83096 6.54244 1.48677 1 -7.35807 0.0491804 4
394 1 9.82927 2.7098 8.11204 -1.25031 -2.88191 -3.26561 1 -7.38598 0.0127802 4
395 1 12.475 1.79555 7.12415 0.345723 1.76457 -1.60233 1 -7.32602 0.00361049 4
396 1 11.5541 0.856678 8.01509 -1.35791 0.960593 2.65329 1 -7.29369 0.0061039 4
397 1 10.7343 3.54427 7.19921 4.57203 -1.24439 6.86255 1 -7.3437 0.0432877 4
398 1 13.3635 0.866424 6.26047 0.259161 6.1875 -4.14247 1 -7.35833 0.0345524 4
399 1 13.3858 2.66691 4.48409 3.58257 -10.1392 -0.52884 1 -7.42359 0.0721499 4
400 1 14.2568 1.76611 5.35169 1.25896 4.66839 -3.79924 1 -7.30693 0.0235358 4
401 1 15.2261 0.929684 4.49631 2.51827 3.21211 -1.53089 1 -7.35383 0.0118279 4
402 1 15.1178 2.67748 6.29759 12.5774 -5.30127 -0.0839708 1 -7.24183 0.115958 4
403 1 16.9203 0.900156 6.29742 2.06289 -3.39964 -2.4575 1 -7.29019 0.0136015 4
404 1 16.9582 2.70789 4.47082 0.84553 -4.19663 -4.07841 1 -7.37476 0.0217601 4
405 1 16.0487 3.56243 5.38325 4.62648 0.153149 -2.80658 1 -7.35494 0.01824 4
406 1 13.3676 2.64583 8.07604 4.56047 5.41253 -1.93073 1 -7.35135 0.0334996 4
407 1 16.0509 1.75121 7.17175 2.2207 -2.30018 -1.98541 1 -7.29841 0.00881615 4
408 1 15.1559 0.883783 8.04022 4.73814 -1.46526 5.71337 1 -7.36452 0.0356274 4
409 1 16.9665 2.73333 8.07573 -2.73745 -0.436341 -3.52375 1 -7.25739 0.0125113 4
410 1 14.2668 3.58277 7.20728 -3.42274 -0.937442 9.72785 1 -7.31234 0.0667397 4
694 1 16.0937 -0.0022546 5.4053 -1.97305 -1.54842 -3.84 1 -7.37949 0.0130935 4
412 1 17.8293 1.82569 5.34179 -3.0805 -2.65478 -3.61585 1 -7.30015 0.0184311 4
413 1 18.7503 0.905122 4.47167 6.82141 0.129142 2.57946 1 -7.25728 0.0331143 4
414 1 18.7436 2.6677 6.30528 0.760586 -8.55504 2.20709 1 -7.29953 0.0489467 4
415 1 20.5361 0.924888 6.31422 -2.65423 0.853982 -0.809091 1 -7.39332 0.00524632 4
416 1 20.552 2.70043 4.47457 3.66091 1.57488 -7.68938 1 -7.35969 0.0466876 4
417 1 19.6306 3.58434 5.38933 3.30717 -1.21053 8.75892 1 -7.28351 0.0554715 4
418 1 19.648 1.7577 7.18764 -1.62688 0.688753 -2.89406 1 -7.34017 0.00715585 4
419 1 18.702 0.901458 8.08844 -0.545796 3.24292 -1.48467 1 -7.38609 0.00810316 4
420 1 20.5253 2.72092 8.05219 -3.29865 -2.25621 -6.64748 1 -7.34514 0.0374456 4
421 1 17.8857 3.58076 7.18624 3.63945 2.58317 -4.06144 1 -7.37646 0.0226648 4
709 1 17.8606 -0.00290175 7.20769 17.4827 -10.7625 5.99536 1 -7.29498 0.284711 4
423 1 0.931169 4.46493 4.51981 -3.09106 -4.84929 4.99602 1 -7.26433 0.0361197 4
424 1 0.888591 6.26123 6.28941 0.0762909 -3.13848 -1.35852 1 -7.3247 0.0072833 4
425 1 2.70869 4.46482 6.28901 -5.68801 -7.29765 11.718 1 -7.40007 0.138752 4
426 1 2.70418 6.22264 4.47982 1.80215 2.52363 -7.05304 1 -7.26473 0.0369483 4
427 1 3.58207 5.37039 5.37755 -0.863656 -0.904304 -1.39422 1 -7.42543 0.00218317 4
428 1 1.77134 7.16102 5.41339 2.81018 3.72851 8.41924 1 -7.29828 0.057688 4
429 1 0.902627 8.02754 4.45383 -3.75038 -2.46913 6.96287 1 -7.327 0.0427255 4
430 1 2.67389 8.03473 6.28379 -8.34131 -5.01296 3.77495 1 -7.25967 0.067818 4
431 1 1.79027 5.36364 7.18865 -4.50567 -3.36338 -2.6257 1 -7.28554 0.0239682 4
432 1 0.836572 4.45932 8.08696 -1.44938 4.82501 -2.91479 1 -7.28239 0.0210862 4