ITEM: TIMESTEP
49125775
ITEM: NUMBER OF ATOMS
3060
ITEM: BOX BOUNDS pp pp mm
0.0000000000000000e+00 2.1394294200000001e+01
0.0000000000000000e+00 2.1394294200000001e+01
-5.3491084073550004e-03 5.3485735499999997e+01
ITEM: ATOMS id type x y z vx vy vz c_clusts c_atom_pe c_atom_ke c_atom_coord
1 1 0 0 0 0 0 0 1 -3.32852 0 2
2 1 1.78286 1.78286 0 0 0 0 1 -3.32602 0 2
3 1 0.891429 0.891429 0.891429 0 0 0 1 -7.02117 0 4
4 1 0.89055 2.74486 2.67491 -5.03974 -3.14894 3.25745 1 -7.29122 0.0285854 4
5 1 2.66457 0.909749 2.6344 -10.2273 -6.09099 -6.28603 1 -7.3618 0.112791 4
6 1 2.67429 2.67429 0.891429 0 0 0 1 -7.02971 0 4
7 1 3.56572 0 0 0 0 0 1 -3.34922 0 2
8 1 3.56881 1.78725 1.78712 -2.70139 -5.24639 -9.21554 1 -7.36893 0.0745345 4
9 1 0 3.56572 0 0 0 0 1 -3.3209 0 2
10 1 1.77922 3.55782 1.79548 -5.15246 -3.85723 -2.44161 1 -7.36499 0.0294952 4
11 1 3.56572 3.56572 0 0 0 0 1 -3.33756 0 2
12 1 1.82472 1.80296 3.58501 5.08149 3.52494 2.18107 1 -7.28012 0.0267667 4
13 1 3.60443 3.61841 3.58414 4.84638 -0.461839 3.88206 1 -7.30719 0.0241321 4
292 1 1.79587 0.00968006 1.77892 5.33631 -0.933388 -3.27153 1 -7.40931 0.0249284 4
56 1 0.0105271 3.61963 3.58247 4.30449 1.2963 -0.155009 1 -7.36003 0.0125936 4
55 1 0.0120041 1.80086 1.78738 -4.66036 2.41393 -1.0763 1 -7.34774 0.0178664 4
291 1 3.55747 0.00424369 3.53626 0.322621 -9.89878 -0.566419 1 -7.30165 0.0612535 4
350 1 0.00352235 0.00975276 3.54459 -0.047944 3.31238 -5.53134 1 -7.32418 0.0258742 4
14 1 5.34857 1.78286 0 0 0 0 1 -3.32088 0 2
15 1 4.45714 0.891429 0.891429 0 0 0 1 -7.01342 0 4
16 1 4.47203 2.63821 2.72221 -3.72049 -10.9642 1.28992 1 -7.30744 0.0844748 4
17 1 6.26094 0.876105 2.68886 -2.27601 3.06927 3.12999 1 -7.38682 0.0151857 4
18 1 6.24 2.67429 0.891429 0 0 0 1 -6.99331 0 4
19 1 7.13143 0 0 0 0 0 1 -3.31382 0 2
20 1 7.15501 1.7666 1.74996 -4.38882 -1.50078 2.95033 1 -7.30908 0.0188088 4
21 1 8.02286 0.891429 0.891429 0 0 0 1 -7.0433 0 4
22 1 7.97969 2.64097 2.6646 3.56053 6.93754 -1.73314 1 -7.33183 0.0397174 4
23 1 5.35144 3.56825 1.8176 -1.64843 -5.50733 6.62422 1 -7.28677 0.0478822 4
24 1 7.13143 3.56572 0 0 0 0 1 -3.33514 0 2
25 1 5.40461 1.74003 3.55175 3.3481 -3.76511 1.94479 1 -7.33774 0.0181549 4
26 1 7.12409 3.5325 3.52587 -0.587629 -3.11339 -0.232649 1 -7.34867 0.00628191 4
306 1 7.21424 0.0111854 3.50837 -1.12285 -9.52706 1.6189 1 -7.30139 0.0589104 4
28 1 8.91429 1.78286 0 0 0 0 1 -3.33864 0 2
29 1 9.83488 0.843097 2.65895 -0.307155 -7.44772 0.558394 1 -7.33397 0.0347778 4
30 1 9.80572 2.67429 0.891429 0 0 0 1 -7.0012 0 4
31 1 10.6971 0 0 0 0 0 1 -3.34692 0 2
32 1 10.6818 1.74996 1.79762 -6.74532 0.725215 -2.46472 1 -7.35175 0.0324285 4
33 1 12.48 1.78286 0 0 0 0 1 -3.33555 0 2
34 1 11.5886 0.891429 0.891429 0 0 0 1 -7.01067 0 4
35 1 11.5686 2.67906 2.66839 0.24609 4.67466 0.486093 1 -7.34902 0.0137863 4
36 1 8.94599 3.55055 1.79016 5.29213 -5.494 1.9283 1 -7.28991 0.0385337 4
37 1 10.6971 3.56572 0 0 0 0 1 -3.35083 0 2
38 1 12.4895 3.56039 1.77609 -1.39587 -4.64007 -8.11635 1 -7.40821 0.0556162 4
39 1 8.91568 1.76353 3.55635 -5.11636 -2.4335 8.17827 1 -7.23709 0.0616097 4
40 1 12.4477 1.80526 3.55882 6.7604 -2.56133 -12.0007 1 -7.33068 0.12217 4
41 1 10.6829 3.5463 3.57858 4.88022 3.55073 0.935911 1 -7.33568 0.0232166 4
319 1 10.725 -0.0413496 3.57405 -5.5856 -8.62824 -1.49747 1 -7.36505 0.0671523 4
42 1 13.3955 0.886589 2.67708 -3.99391 1.02095 1.64529 1 -7.30613 0.0122622 4
43 1 13.3714 2.67429 0.891429 0 0 0 1 -7.03685 0 4
44 1 14.2629 0 0 0 0 0 1 -3.30905 0 2
45 1 14.2441 1.77023 1.768 0.505145 -7.85528 -1.34136 1 -7.3226 0.0396858 4
46 1 16.0457 1.78286 0 0 0 0 1 -3.33031 0 2
47 1 15.1543 0.891429 0.891429 0 0 0 1 -7.00815 0 4
48 1 15.1631 2.6909 2.69994 -4.54373 -2.61444 0.536402 1 -7.33475 0.0172838 4
49 1 16.8984 0.907277 2.67672 -2.05466 0.923566 -1.37633 1 -7.35156 0.00433761 4
50 1 16.9371 2.67429 0.891429 0 0 0 1 -7.01138 0 4
51 1 14.2629 3.56572 0 0 0 0 1 -3.33649 0 2
52 1 16.0342 3.56459 1.76982 -6.86268 5.46776 -1.92617 1 -7.35519 0.0502317 4
53 1 16.0082 1.8161 3.55595 -6.43028 -5.91731 -1.50965 1 -7.38203 0.0489489 4
54 1 14.2793 3.59046 3.55385 1.86584 0.399644 -4.11818 1 -7.3429 0.0128223 4
336 1 14.3018 -0.0221608 3.54726 -2.81381 -3.38235 -7.19127 1 -7.40359 0.0442372 4
57 1 17.8286 0 0 0 0 0 1 -3.33261 0 2
58 1 17.7998 1.79974 1.77277 -1.62784 6.23629 2.91107 1 -7.32722 0.031131 4
59 1 19.6114 1.78286 0 0 0 0 1 -3.33744 0 2
60 1 18.72 0.891429 0.891429 0 0 0 1 -7.0202 0 4
61 1 18.7218 2.7184 2.67778 13.4922 -1.31293 0.161701 1 -7.31276 0.114395 4
62 1 20.5132 0.937553 2.63532 0.936587 3.06172 -1.3139 1 -7.35358 0.0074552 4
63 1 20.5029 2.67429 0.891429 0 0 0 1 -6.99748 0 4
64 1 17.8286 3.56572 0 0 0 0 1 -3.34042 0 2
65 1 19.6293 3.57236 1.79984 6.1164 -0.361983 0.812135 1 -7.37071 0.0237773 4
66 1 19.624 1.82905 3.56686 -3.09611 -3.85032 2.61087 1 -7.37734 0.0194368 4
67 1 17.8628 3.565 3.58584 3.20133 -2.07326 1.59641 1 -7.34329 0.0106406 4
68 1 19.6238 0.0193087 1.76133 -2.20862 2.27498 -2.1201 1 -7.36558 0.00905528 4
349 1 17.8389 0.0511603 3.54348 -1.80545 -2.22549 -1.71085 1 -7.27376 0.00693351 4
69 1 1.78286 5.34857 0 0 0 0 1 -3.33871 0 2
70 1 0.891429 4.45714 0.891429 0 0 0 1 -7.01903 0 4
71 1 0.867884 6.17795 2.62594 5.03539 -7.9515 1.12363 1 -7.28625 0.0559213 4
72 1 2.66957 4.40198 2.69675 4.15258 -8.43398 8.49755 1 -7.39117 0.0999518 4
73 1 2.67429 6.24 0.891429 0 0 0 1 -7.02864 0 4
74 1 3.5312 5.35132 1.80893 1.86302 -2.29162 -0.23848 1 -7.30584 0.00546443 4
75 1 0 7.13143 0 0 0 0 1 -3.34317 0 2
76 1 1.78188 7.12867 1.7566 -4.44203 -5.00601 -7.9642 1 -7.32904 0.0673591 4
77 1 0.891429 8.02286 0.891429 0 0 0 1 -7.04055 0 4
78 1 2.65432 8.01618 2.6757 3.45939 6.96482 -4.50208 1 -7.34461 0.0502577 4
79 1 3.56572 7.13143 0 0 0 0 1 -3.33836 0 2
80 1 1.77933 5.3013 3.59271 -2.35933 -6.71567 -0.94246 1 -7.25117 0.0320891 4
81 1 3.57988 7.12833 3.56322 -2.62286 3.09379 4.10001 1 -7.34732 0.0207025 4
128 1 -0.00693109 5.3233 1.76932 -4.12223 -2.56468 -2.47017 1 -7.403 0.0184687 4
82 1 0.0416508 7.1015 3.55988 -5.97094 -4.34589 1.09202 1 -7.22445 0.0346886 4
83 1 5.34857 5.34857 0 0 0 0 1 -3.35334 0 2
84 1 4.45714 4.45714 0.891429 0 0 0 1 -6.95267 0 4
85 1 4.48409 6.22331 2.67768 0.0239278 -10.8569 -2.9295 1 -7.34112 0.0787092 4
86 1 6.26004 4.47448 2.65943 -0.292803 3.32479 -3.9312 1 -7.34753 0.016553 4
87 1 6.24 6.24 0.891429 0 0 0 1 -7.02317 0 4
88 1 7.14294 5.37354 1.77336 3.27733 7.04263 -8.37297 1 -7.38818 0.0811931 4
89 1 8.02286 4.45714 0.891429 0 0 0 1 -6.98233 0 4
90 1 8.02229 6.26633 2.64175 4.23019 -0.801253 8.94533 1 -7.3948 0.0613435 4
91 1 5.36468 7.13545 1.77641 -4.99328 -2.2943 -0.750284 1 -7.35567 0.0191456 4
92 1 4.45714 8.02286 0.891429 0 0 0 1 -7.01655 0 4
93 1 6.24139 8.02331 2.72049 -15.8392 2.45785 -2.43023 1 -7.27731 0.163591 4
94 1 7.13143 7.13143 0 0 0 0 1 -3.33339 0 2
95 1 8.02286 8.02286 0.891429 0 0 0 1 -7.03277 0 4
96 1 5.37549 5.35574 3.60027 5.67059 7.23989 -8.15749 1 -7.33732 0.0940586 4
97 1 7.18414 7.13159 3.55024 3.55157 -2.35663 1.29197 1 -7.33236 0.0123468 4
98 1 8.91429 5.34857 0 0 0 0 1 -3.32657 0 2
99 1 9.83566 4.43298 2.66191 -5.36348 -1.90699 1.0421 1 -7.36168 0.0208447 4
100 1 9.80572 6.24 0.891429 0 0 0 1 -7.00779 0 4
101 1 10.7368 5.32595 1.79294 -2.11264 -5.11627 -1.2132 1 -7.36243 0.0199869 4
102 1 12.48 5.34857 0 0 0 0 1 -3.33808 0 2
103 1 11.5886 4.45714 0.891429 0 0 0 1 -7.0141 0 4
104 1 11.6177 6.23815 2.67217 3.29723 0.687507 1.71397 1 -7.40609 0.00888954 4
105 1 8.95882 7.13874 1.73005 3.64036 -1.56 1.16069 1 -7.32554 0.0106018 4
106 1 9.79461 8.00857 2.66516 8.69335 5.90764 -4.81826 1 -7.37168 0.0832123 4
107 1 10.6971 7.13143 0 0 0 0 1 -3.29987 0 2
108 1 12.494 7.10086 1.80366 2.0804 -8.34444 7.52884 1 -7.35887 0.0813145 4
109 1 11.5886 8.02286 0.891429 0 0 0 1 -6.98935 0 4
110 1 8.89235 5.3389 3.49751 1.0337 -4.20534 -0.474574 1 -7.22018 0.0118128 4
111 1 12.4801 5.35445 3.58073 -6.46724 4.92319 4.15409 1 -7.33262 0.0518602 4
112 1 10.7002 7.11315 3.56375 1.66587 8.55536 4.35005 1 -7.37635 0.0590634 4
113 1 13.3758 4.41818 2.65309 3.21347 -10.297 3.75608 1 -7.35563 0.0812035 4
114 1 13.3714 6.24 0.891429 0 0 0 1 -7.00101 0 4
115 1 14.2577 5.34588 1.81132 -9.70944 7.39681 -9.09282 1 -7.28627 0.144195 4
116 1 16.0457 5.34857 0 0 0 0 1 -3.34075 0 2
117 1 15.1543 4.45714 0.891429 0 0 0 1 -6.98505 0 4
118 1 15.1999 6.24643 2.6377 2.82831 7.70264 -0.664322 1 -7.25488 0.0421827 4
119 1 16.9627 4.45718 2.63064 5.31642 -2.67457 0.855646 1 -7.28561 0.0225005 4
120 1 16.9371 6.24 0.891429 0 0 0 1 -7.01433 0 4
121 1 13.3867 7.98275 2.69152 0.504521 0.388004 4.40991 1 -7.37945 0.0123567 4
122 1 14.2629 7.13143 0 0 0 0 1 -3.35657 0 2
123 1 16.0771 7.14851 1.75193 2.7212 -4.50528 -4.58589 1 -7.32562 0.0303326 4
124 1 15.1543 8.02286 0.891429 0 0 0 1 -7.02375 0 4
125 1 16.957 8.06539 2.73561 -2.59247 -2.13543 1.3874 1 -7.26935 0.00821964 4
126 1 16.0625 5.31416 3.57512 -10.7133 4.71748 2.59492 1 -7.28366 0.089482 4
127 1 14.26 7.11083 3.55202 -1.11777 -1.35283 5.23548 1 -7.32912 0.0189777 4
129 1 17.8258 5.3296 1.78023 0.437904 -2.18554 -3.55377 1 -7.39598 0.0109532 4
130 1 19.6114 5.34857 0 0 0 0 1 -3.31252 0 2
131 1 18.72 4.45714 0.891429 0 0 0 1 -6.99877 0 4
132 1 18.6983 6.24786 2.6588 2.09371 -1.54584 -4.83227 1 -7.40152 0.01875 4
133 1 20.5092 4.46969 2.65938 -3.78289 -3.08919 -6.91666 1 -7.35185 0.0446239 4
134 1 20.5029 6.24 0.891429 0 0 0 1 -6.9954 0 4
135 1 17.8286 7.13143 0 0 0 0 1 -3.32429 0 2
136 1 19.5607 7.11711 1.7808 -1.79438 -4.98645 5.44984 1 -7.32626 0.0359671 4
137 1 18.72 8.02286 0.891429 0 0 0 1 -7.01866 0 4
138 1 20.5089 8.04048 2.66244 -5.6565 1.9021 -2.42845 1 -7.28013 0.0258378 4
139 1 19.608 5.35179 3.58361 1.99948 -2.35892 4.37903 1 -7.26334 0.0178875 4
140 1 17.8425 7.13238 3.57827 7.9371 4.59791 5.8399 1 -7.34933 0.0735974 4
141 1 1.78286 8.91429 0 0 0 0 1 -3.33997 0 2
142 1 0.899021 9.82632 2.62227 0.649174 -1.45274 -1.75194 1 -7.29969 0.00348632 4
143 1 2.67429 9.80572 0.891429 0 0 0 1 -7.01026 0 4
144 1 3.54667 8.92217 1.76241 3.34891 -4.36435 3.02049 1 -7.30959 0.024515 4
145 1 0 10.6971 0 0 0 0 1 -3.32847 0 2
146 1 1.80395 10.6999 1.8087 -2.68427 2.40859 2.54568 1 -7.36983 0.0121293 4
147 1 1.78286 12.48 0 0 0 0 1 -3.31881 0 2
148 1 0.891429 11.5886 0.891429 0 0 0 1 -6.99829 0 4
149 1 2.70391 11.5759 2.6585 -6.96747 -1.24923 -2.37736 1 -7.3437 0.0347053 4
150 1 3.56572 10.6971 0 0 0 0 1 -3.35359 0 2
151 1 3.6328 12.4627 1.77459 -1.98913 -6.57329 -3.57972 1 -7.33701 0.0373326 4
152 1 1.7577 8.90701 3.59068 5.95408 4.53005 3.16914 1 -7.26136 0.04109 4
153 1 1.85131 12.4819 3.53959 7.25005 0.244653 -1.15232 1 -7.37125 0.0335804 4
154 1 3.58689 10.6725 3.56733 -1.35696 0.00219528 -15.7182 1 -7.2999 0.154923 4
205 1 0.021523 8.88733 1.77539 7.79864 -5.71945 -1.6322 1 -7.38376 0.0598743 4
204 1 0.0274687 12.5029 1.75508 12.8013 -1.76385 -1.01066 1 -7.33723 0.104571 4
155 1 5.34857 8.91429 0 0 0 0 1 -3.33363 0 2
156 1 4.49014 9.8249 2.65591 -1.62037 4.35115 -3.32075 1 -7.30692 0.0202821 4
157 1 6.24 9.80572 0.891429 0 0 0 1 -6.98135 0 4
158 1 7.1695 8.92442 1.77585 -9.89582 -5.34686 -3.60692 1 -7.30728 0.0868446 4
159 1 7.99262 9.8313 2.68753 -6.31627 -3.24604 -5.06412 1 -7.39108 0.0473525 4
160 1 5.34189 10.7317 1.76642 1.71297 0.766147 3.42612 1 -7.37732 0.00949793 4
161 1 5.34857 12.48 0 0 0 0 1 -3.31653 0 2
162 1 4.45714 11.5886 0.891429 0 0 0 1 -7.04881 0 4
163 1 6.24389 11.58 2.67876 -1.00325 2.3488 0.219424 1 -7.35907 0.00409027 4
164 1 7.13143 10.6971 0 0 0 0 1 -3.31843 0 2
165 1 7.14262 12.4813 1.76493 -4.73503 -4.3593 4.15266 1 -7.30358 0.0365168 4
166 1 8.02286 11.5886 0.891429 0 0 0 1 -7.02897 0 4
167 1 5.33877 8.89742 3.5803 -6.1537 -6.15318 2.65192 1 -7.33973 0.0515134 4
168 1 5.40565 12.4953 3.55098 -5.31274 1.25378 -0.507924 1 -7.34236 0.0187071 4
169 1 7.11765 10.6686 3.54125 0.397007 0.85854 -2.37847 1 -7.34148 0.00407802 4
170 1 8.91429 8.91429 0 0 0 0 1 -3.29357 0 2
171 1 9.80572 9.80572 0.891429 0 0 0 1 -6.99631 0 4
172 1 10.666 8.91345 1.75478 -3.90161 8.60319 -4.26984 1 -7.33017 0.0668915 4
173 1 12.48 8.91429 0 0 0 0 1 -3.34008 0 2
174 1 11.5733 9.79401 2.65706 6.09824 3.31314 5.25809 1 -7.28019 0.047188 4
175 1 8.86916 10.7388 1.78173 -4.07851 -1.94089 0.444696 1 -7.34682 0.0128214 4
176 1 8.91429 12.48 0 0 0 0 1 -3.34423 0 2
177 1 9.7747 11.6012 2.65524 6.52885 0.218902 -4.42206 1 -7.39572 0.0387326 4
178 1 10.6971 10.6971 0 0 0 0 1 -3.32993 0 2
179 1 10.683 12.4598 1.80515 3.93057 -3.64994 1.11204 1 -7.33943 0.0186778 4
180 1 12.4922 10.6855 1.78641 6.90618 0.853052 -1.23695 1 -7.3188 0.0310921 4
181 1 12.48 12.48 0 0 0 0 1 -3.34395 0 2
182 1 11.5886 11.5886 0.891429 0 0 0 1 -6.98614 0 4
183 1 8.91729 8.93775 3.52285 -1.25866 -0.304244 2.60535 1 -7.35843 0.00526861 4
184 1 12.4959 8.85146 3.53015 6.4003 5.29052 9.60279 1 -7.29095 0.100314 4
185 1 8.92261 12.4915 3.57459 0.575273 4.1668 -7.79879 1 -7.31528 0.0488693 4
186 1 10.6789 10.74 3.5665 4.38952 -0.293092 -3.99513 1 -7.27491 0.0219809 4
187 1 12.5016 12.4701 3.58639 -0.692349 14.1868 2.51481 1 -7.39191 0.129507 4
188 1 13.3714 9.80572 0.891429 0 0 0 1 -7.01977 0 4
189 1 14.2884 8.89719 1.79516 1.88432 3.4647 1.0652 1 -7.34657 0.0103879 4
190 1 16.0457 8.91429 0 0 0 0 1 -3.34653 0 2
191 1 15.1751 9.75854 2.71497 -3.82956 -0.874739 -2.16886 1 -7.24737 0.0125324 4
192 1 16.9371 9.80572 0.891429 0 0 0 1 -6.97927 0 4
193 1 13.3899 11.5921 2.70562 -2.12349 3.37827 -0.338298 1 -7.37412 0.00998144 4
194 1 14.2629 10.6971 0 0 0 0 1 -3.35547 0 2
195 1 14.2889 12.467 1.79207 -2.36095 -1.26521 -7.77562 1 -7.34171 0.0420979 4
196 1 16.0869 10.7554 1.77152 -5.5796 0.720846 -2.89725 1 -7.2444 0.0249254 4
197 1 16.0457 12.48 0 0 0 0 1 -3.31698 0 2
198 1 15.1543 11.5886 0.891429 0 0 0 1 -7.04676 0 4
199 1 16.9356 11.6184 2.6913 0.97581 -8.45502 7.27119 1 -7.37857 0.077996 4
200 1 16.0721 8.87417 3.57299 -3.48892 -8.30709 -0.503344 1 -7.38188 0.0506864 4
201 1 14.2553 10.6887 3.54151 7.07093 0.337853 -4.44144 1 -7.25111 0.0434693 4
202 1 16.0641 12.4824 3.59127 6.75229 -3.22056 0.736322 1 -7.36072 0.0351718 4
203 1 21.4457 10.755 3.53256 7.84516 2.28786 1.78085 1 -7.30064 0.0435402 4
206 1 17.8507 8.93113 1.81132 5.74221 4.42746 -2.11137 1 -7.35489 0.035499 4
207 1 19.6114 8.91429 0 0 0 0 1 -3.35358 0 2
208 1 18.714 9.83019 2.69308 -3.79396 -3.30679 9.92049 1 -7.33117 0.0770222 4
209 1 20.5029 9.80572 0.891429 0 0 0 1 -6.99379 0 4
210 1 17.8286 10.6971 0 0 0 0 1 -3.32146 0 2
211 1 17.8125 12.4895 1.81785 -0.153513 3.35853 -3.64108 1 -7.34277 0.0152873 4
212 1 19.6666 10.7243 1.77538 5.14475 -1.5505 -0.616139 1 -7.2971 0.0182073 4
213 1 19.6114 12.48 0 0 0 0 1 -3.30915 0 2
214 1 18.72 11.5886 0.891429 0 0 0 1 -6.96197 0 4
215 1 20.5495 11.6406 2.68044 -1.78159 6.12854 5.73258 1 -7.35055 0.0458078 4
216 1 19.5993 8.96444 3.57112 4.68023 -1.60231 4.41283 1 -7.34059 0.0273526 4
217 1 17.8718 10.6992 3.57592 -2.06497 -1.12945 1.71957 1 -7.3414 0.00528855 4
218 1 19.619 12.4957 3.55506 -3.89812 -2.14819 8.11826 1 -7.41932 0.053352 4
219 1 0.929036 13.3864 2.65958 1.28202 1.41539 0.973526 1 -7.3362 0.00285982 4
220 1 2.67429 13.3714 0.891429 0 0 0 1 -6.9932 0 4
221 1 0 14.2629 0 0 0 0 1 -3.32223 0 2
222 1 1.78312 14.256 1.76239 4.47322 -4.05146 -1.2974 1 -7.34505 0.0237189 4
223 1 1.78286 16.0457 0 0 0 0 1 -3.32892 0 2
224 1 0.891429 15.1543 0.891429 0 0 0 1 -7.03803 0 4
225 1 0.874285 16.943 2.65607 -2.07984 -4.1843 3.87241 1 -7.32031 0.0229237 4
226 1 2.66475 15.2076 2.6585 2.5433 -5.57732 7.26379 1 -7.29641 0.0562284 4
227 1 2.67429 16.9371 0.891429 0 0 0 1 -7.01763 0 4
228 1 3.56572 14.2629 0 0 0 0 1 -3.31504 0 2
229 1 3.54632 16.0795 1.77615 -4.23292 4.68962 -7.88558 1 -7.33365 0.063545 4
230 1 1.76555 16.0741 3.54448 1.12523 -3.17651 0.361345 1 -7.32088 0.00714976 4
231 1 3.58408 14.2506 3.54139 -1.55767 -9.99377 -4.36919 1 -7.32982 0.0755573 4
233 1 0.00165081 16.0259 1.74474 5.61077 3.34795 0.886365 1 -7.34643 0.0270601 4
232 1 0.00987087 14.2576 3.57837 -2.77185 -6.28889 -6.24335 1 -7.33001 0.053661 4
234 1 4.45766 13.3402 2.66393 4.475 0.879711 1.73141 1 -7.37791 0.0148121 4
235 1 6.24 13.3714 0.891429 0 0 0 1 -6.98613 0 4
236 1 8.0586 13.404 2.68134 -6.07484 2.33421 1.11626 1 -7.31037 0.0271367 4
237 1 5.31392 14.2766 1.77571 3.19284 0.422175 -4.79263 1 -7.33502 0.0207528 4
238 1 5.34857 16.0457 0 0 0 0 1 -3.34925 0 2
239 1 4.45714 15.1543 0.891429 0 0 0 1 -7.04285 0 4
240 1 4.42868 16.9913 2.72083 3.75974 -0.492547 -4.18897 1 -7.33451 0.0198714 4
241 1 6.24252 15.1545 2.66953 -5.93161 0.973973 5.71718 1 -7.3357 0.0428346 4
242 1 6.24 16.9371 0.891429 0 0 0 1 -7.00715 0 4
243 1 7.13143 14.2629 0 0 0 0 1 -3.34276 0 2
244 1 7.16505 16.0617 1.78069 -3.33229 1.47376 -4.0419 1 -7.32588 0.018432 4
245 1 8.02286 15.1543 0.891429 0 0 0 1 -6.98535 0 4
246 1 8.0267 16.9347 2.72237 8.02065 0.463906 3.02852 1 -7.35602 0.045884 4
247 1 5.33934 16.0496 3.58524 7.89815 7.08448 -1.69713 1 -7.27651 0.0718596 4
248 1 7.13072 14.3088 3.52796 1.17649 -1.53639 -0.340549 1 -7.37561 0.00240293 4
249 1 9.80572 13.3714 0.891429 0 0 0 1 -7.00992 0 4
250 1 11.626 13.3613 2.66087 3.62396 -7.59925 6.13645 1 -7.34535 0.0675566 4
251 1 8.96989 14.2504 1.7884 -2.71147 -1.67326 -3.69351 1 -7.31361 0.0148099 4
252 1 8.91429 16.0457 0 0 0 0 1 -3.31598 0 2
253 1 9.85875 15.1882 2.6866 -2.93816 -0.520749 4.58669 1 -7.37804 0.0186365 4
254 1 9.80572 16.9371 0.891429 0 0 0 1 -7.04495 0 4
255 1 10.6971 14.2629 0 0 0 0 1 -3.34615 0 2
256 1 10.6919 16.06 1.78142 -9.40072 -0.691429 -2.14305 1 -7.28004 0.0581622 4
257 1 12.4695 14.3012 1.77241 -0.125521 1.38086 5.47583 1 -7.29389 0.0198599 4
258 1 12.48 16.0457 0 0 0 0 1 -3.32208 0 2
259 1 11.5886 15.1543 0.891429 0 0 0 1 -7.0227 0 4
260 1 11.6651 16.9463 2.69994 -4.95849 -1.2884 3.47802 1 -7.28821 0.0238658 4
261 1 8.96579 16.0862 3.59271 -6.21085 -6.31559 -9.0477 1 -7.35074 0.0997887 4
262 1 10.7562 14.3042 3.51037 -1.96883 -1.93082 1.58299 1 -7.21669 0.00629286 4
263 1 12.4563 16.0704 3.59639 1.37631 9.45016 0.0596136 1 -7.28257 0.0567673 4
264 1 13.3714 13.3714 0.891429 0 0 0 1 -6.96263 0 4
265 1 15.1509 13.403 2.67855 -1.8637 6.08957 11.1055 1 -7.32444 0.102009 4
266 1 16.9371 13.3714 0.891429 0 0 0 1 -7.02003 0 4
267 1 13.3811 15.1935 2.70046 3.61675 1.03852 1.00616 1 -7.32784 0.00944329 4
268 1 13.3714 16.9371 0.891429 0 0 0 1 -7.02088 0 4
269 1 14.2629 14.2629 0 0 0 0 1 -3.31117 0 2
270 1 14.2694 16.0294 1.744 -6.58993 -0.471916 4.91282 1 -7.35942 0.0421916 4
271 1 16.0506 14.2505 1.76035 -4.28476 -2.23769 3.63502 1 -7.36117 0.0227682 4
272 1 16.0457 16.0457 0 0 0 0 1 -3.33721 0 2
273 1 15.1543 15.1543 0.891429 0 0 0 1 -7.0283 0 4
274 1 15.1976 16.9311 2.60038 -0.245907 -3.34322 4.62375 1 -7.30257 0.0203014 4
275 1 16.9788 15.1353 2.64356 -4.1777 6.0853 4.2838 1 -7.27528 0.0453344 4
276 1 16.9371 16.9371 0.891429 0 0 0 1 -7.04074 0 4
277 1 14.2469 14.2663 3.57454 4.81983 1.83259 -3.80619 1 -7.37279 0.0255669 4
278 1 16.0519 16.0454 3.53626 -1.17036 -0.248156 -4.42286 1 -7.29885 0.0130666 4
279 1 18.7163 13.3427 2.67428 -5.63709 -9.11341 -2.01772 1 -7.37598 0.0740078 4
280 1 20.5029 13.3714 0.891429 0 0 0 1 -7.03268 0 4
281 1 17.8286 14.2629 0 0 0 0 1 -3.31737 0 2
282 1 17.7939 16.059 1.77846 6.4824 6.64754 3.22445 1 -7.32662 0.0601316 4
283 1 19.5748 14.2219 1.77441 -0.013788 -10.8458 0.303145 1 -7.34785 0.0732737 4
284 1 19.6114 16.0457 0 0 0 0 1 -3.33053 0 2
285 1 18.72 15.1543 0.891429 0 0 0 1 -6.97667 0 4
286 1 18.7055 16.9003 2.71365 2.10758 3.65378 4.6008 1 -7.29711 0.0242493 4
287 1 20.4644 15.1451 2.68652 4.72556 -2.71 3.56263 1 -7.27942 0.0263706 4
288 1 20.5029 16.9371 0.891429 0 0 0 1 -7.02252 0 4
289 1 17.8554 14.2662 3.57197 -1.29568 -0.444589 3.04189 1 -7.40911 0.00692731 4
290 1 19.6272 15.9848 3.57105 -2.18619 -2.64649 6.66965 1 -7.34212 0.0350224 4
293 1 0 17.8286 0 0 0 0 1 -3.35018 0 2
294 1 1.75191 17.8243 1.77787 -1.0328 5.16645 -4.70753 1 -7.33382 0.0310713 4
295 1 1.78286 19.6114 0 0 0 0 1 -3.3386 0 2
296 1 0.891429 18.72 0.891429 0 0 0 1 -7.00282 0 4
297 1 0.922175 20.5067 2.66909 3.92447 -6.34866 -5.03957 1 -7.35161 0.0504814 4
298 1 2.63863 18.7286 2.68669 6.24668 3.69096 7.36119 1 -7.26361 0.0664946 4
299 1 2.67429 20.5029 0.891429 0 0 0 1 -7.0376 0 4
300 1 3.56572 17.8286 0 0 0 0 1 -3.3319 0 2
301 1 3.51312 19.6198 1.76958 0.232294 7.76294 9.44302 1 -7.33038 0.0930451 4
302 1 1.74339 19.651 3.6312 -1.62131 3.08943 8.50457 1 -7.31781 0.0525956 4
303 1 3.5667 17.8399 3.59296 -0.344484 3.47732 7.47647 1 -7.3484 0.0423922 4
305 1 0.0427238 19.6094 1.81832 -5.41951 2.17817 -6.55463 1 -7.305 0.0479758 4
27 1 5.38531 21.4134 1.7757 2.27703 1.47493 -1.33091 1 -7.3064 0.00568375 4
307 1 5.36214 17.833 1.82652 3.04918 -9.17304 -0.454874 1 -7.34372 0.0582896 4
308 1 5.34857 19.6114 0 0 0 0 1 -3.34174 0 2
309 1 4.45714 18.72 0.891429 0 0 0 1 -6.96001 0 4
310 1 4.44566 20.4745 2.68016 2.21751 3.55464 -6.70155 1 -7.25464 0.0388789 4
311 1 6.23368 18.6919 2.66621 0.304845 -2.61736 0.83638 1 -7.39679 0.00475721 4
312 1 6.24 20.5029 0.891429 0 0 0 1 -7.01072 0 4
313 1 7.13143 17.8286 0 0 0 0 1 -3.32243 0 2
314 1 7.14467 19.5862 1.76776 -2.87731 -4.59749 -3.64294 1 -7.34798 0.0265694 4
315 1 8.02286 18.72 0.891429 0 0 0 1 -7.03699 0 4
316 1 8.04499 20.4812 2.67694 0.12769 -0.70966 8.37846 1 -7.37332 0.044017 4
317 1 5.39352 19.5805 3.55258 8.26318 -0.439752 -2.9663 1 -7.38385 0.0480964 4
318 1 7.12117 17.8343 3.54676 -4.36631 -8.60884 1.21985 1 -7.34046 0.0589219 4
320 1 8.89843 21.3618 1.79709 -2.13516 2.07675 1.89951 1 -7.3262 0.00776785 4
321 1 12.4839 21.4131 1.78276 0.583643 -0.332747 -3.28475 1 -7.28386 0.00699664 4
322 1 8.91303 17.8206 1.78173 -9.21787 -2.19103 -3.9482 1 -7.28818 0.0655776 4
323 1 8.91429 19.6114 0 0 0 0 1 -3.3279 0 2
324 1 9.83862 18.6983 2.68216 4.43355 -1.83258 -5.30873 1 -7.3257 0.0318666 4
325 1 9.80572 20.5029 0.891429 0 0 0 1 -7.02727 0 4
326 1 10.6971 17.8286 0 0 0 0 1 -3.32595 0 2
327 1 10.6672 19.622 1.75762 -1.35799 -0.101198 -3.15566 1 -7.36885 0.00735245 4
328 1 12.496 17.8215 1.77561 -2.54215 4.19784 -6.13694 1 -7.39193 0.0384325 4
329 1 12.48 19.6114 0 0 0 0 1 -3.33538 0 2
330 1 11.5886 18.72 0.891429 0 0 0 1 -7.0238 0 4
331 1 11.5549 20.4852 2.69112 -6.84765 2.52092 0.470085 1 -7.25793 0.0332788 4
332 1 8.92677 19.5548 3.55023 -8.22367 -2.88239 3.16353 1 -7.34802 0.0534943 4
333 1 10.7291 17.8099 3.59871 5.78264 3.21845 0.941324 1 -7.33525 0.0278122 4
334 1 12.5232 19.6084 3.56921 -0.758299 -1.36153 -5.96584 1 -7.31728 0.0236646 4
335 1 16.0508 21.3831 1.76161 0.0290455 0.103287 2.72137 1 -7.37214 0.00461675 4
337 1 13.4039 18.707 2.68608 2.98834 9.36856 3.7696 1 -7.31933 0.0690333 4
338 1 13.3714 20.5029 0.891429 0 0 0 1 -7.02078 0 4
339 1 14.2629 17.8286 0 0 0 0 1 -3.33593 0 2
340 1 14.2768 19.6286 1.76578 -3.73433 -2.25892 -3.88411 1 -7.36613 0.021246 4
341 1 16.0888 17.8329 1.76297 -4.58991 -1.99561 0.829426 1 -7.3637 0.0160198 4
342 1 16.0457 19.6114 0 0 0 0 1 -3.31101 0 2
343 1 15.1543 18.72 0.891429 0 0 0 1 -7.0147 0 4
344 1 15.1537 20.5125 2.65655 -4.8512 -0.945946 1.12949 1 -7.37044 0.0159993 4
345 1 16.9908 18.6955 2.68821 2.3871 1.58802 3.35714 1 -7.39401 0.0121314 4
346 1 16.9371 20.5029 0.891429 0 0 0 1 -7.05558 0 4
347 1 14.2707 17.7898 3.56279 2.70566 -6.01957 -6.43925 1 -7.30573 0.0529185 4
348 1 16.051 19.5958 3.56653 5.96653 1.46415 -1.49745 1 -7.32224 0.0248881 4
304 1 21.4206 17.8486 3.59509 -3.15852 -1.64454 -1.07709 1 -7.35674 0.00861493 4
351 1 17.8286 17.8286 0 0 0 0 1 -3.32134 0 2
352 1 17.8337 19.6058 1.79829 0.396894 -1.04322 5.76699 1 -7.33905 0.0214762 4
353 1 19.6105 17.7805 1.77954 -1.40185 5.43227 2.60775 1 -7.32427 0.0238234 4
354 1 19.6114 19.6114 0 0 0 0 1 -3.35319 0 2
355 1 18.72 18.72 0.891429 0 0 0 1 -6.98759 0 4
356 1 18.7646 20.4934 2.68449 2.57042 -0.22149 12.1301 1 -7.31658 0.0957265 4
357 1 20.5069 18.683 2.71888 -0.442363 1.90035 5.7615 1 -7.27382 0.0230309 4
358 1 20.5029 20.5029 0.891429 0 0 0 1 -6.975 0 4
359 1 17.8511 17.8252 3.57978 4.7548 -4.67756 -1.4976 1 -7.37782 0.0290863 4
360 1 19.6145 19.5823 3.59004 -6.40284 -2.51631 -3.14407 1 -7.33763 0.0356111 4
361 1 0.922786 0.909026 4.46424 4.18376 0.416374 -9.56438 1 -7.29488 0.0679407 4
362 1 0.9012 2.71813 6.29405 4.63373 -5.91573 -1.88533 1 -7.30111 0.0373591 4
363 1 2.70679 0.905021 6.29483 -4.04579 6.2103 -3.83201 1 -7.33661 0.0433336 4
364 1 2.74211 2.68104 4.51171 1.43717 15.4139 2.07586 1 -7.30872 0.15185 4
365 1 3.61306 1.78087 5.39692 2.61186 -2.34983 -3.36106 1 -7.39346 0.0147143 4
366 1 1.77693 3.58707 5.36691 -5.17258 -5.8108 0.284906 1 -7.26546 0.0377204 4
367 1 1.81419 1.80861 7.16473 -6.42339 -0.491882 -3.61847 1 -7.37487 0.0339815 4
368 1 0.942088 0.915423 8.07176 -5.27419 -3.2534 2.93423 1 -7.32088 0.0292611 4
369 1 2.70431 2.6463 8.08229 1.04864 4.19745 -6.8293 1 -7.34503 0.0406803 4
370 1 3.57399 3.52505 7.22119 -3.72554 -6.83955 -6.10092 1 -7.39271 0.0609232 4
411 1 0.0250429 1.79933 5.38383 0.354893 2.64231 -5.15288 1 -7.26683 0.0209508 4
371 1 -0.055156 3.56951 7.20474 -1.96554 -1.51118 1.04309 1 -7.26967 0.00450327 4
651 1 3.57392 -0.0261917 7.19546 5.21897 -2.01575 3.27724 1 -7.33992 0.0261675 4
710 1 -0.00350945 0.0127643 7.17209 -5.41861 -2.93586 -8.92701 1 -7.35003 0.0732422 4
652 1 1.79699 0.011071 5.40034 -8.63988 1.26245 -6.88435 1 -7.32388 0.0769541 4
372 1 4.46564 0.862635 4.50348 -5.65992 6.55734 -1.74044 1 -7.26818 0.0485881 4
373 1 4.47039 2.66827 6.33855 -8.87273 1.61824 3.1349 1 -7.35654 0.0567476 4
374 1 6.25228 0.860852 6.2275 4.91299 1.89018 0.804256 1 -7.32388 0.0176502 4
375 1 6.25315 2.65337 4.46539 -0.572444 -5.35459 2.47686 1 -7.30552 0.0218685 4
376 1 7.19117 1.78525 5.39669 -5.76487 -2.31916 2.25018 1 -7.34081 0.0271848 4
377 1 8.03866 0.872379 4.50923 -0.497602 -2.17146 -1.81236 1 -7.30011 0.00513343 4
378 1 7.99198 2.69235 6.25668 -5.80152 -0.512778 5.36122 1 -7.36848 0.0390032 4
379 1 5.37005 3.53113 5.36683 3.4291 2.77423 5.76472 1 -7.352 0.0327938 4
380 1 5.3649 1.74824 7.15876 -5.49442 -1.80816 2.58009 1 -7.33564 0.0249686 4
381 1 4.50727 0.870636 8.07671 -2.74959 -0.797782 -6.28896 1 -7.34433 0.0297195 4
382 1 6.26303 2.64267 8.06504 10.4487 1.20833 -1.52093 1 -7.29352 0.0703028 4
383 1 7.99134 0.899084 8.05323 1.3112 -4.7037 2.28229 1 -7.36491 0.0180833 4
384 1 7.13388 3.56791 7.1612 0.873491 -4.21196 6.71678 1 -7.3321 0.039598 4
665 1 7.09707 -0.0271268 7.16574 -5.70533 -1.14039 -3.42795 1 -7.27872 0.028384 4
386 1 9.80404 0.878297 6.2577 3.83482 1.97141 1.11576 1 -7.29322 0.0123472 4
387 1 9.8083 2.65013 4.44613 0.633439 3.95963 6.39329 1 -7.369 0.0354497 4
388 1 10.7323 1.78157 5.32431 -0.146832 0.957784 -2.33788 1 -7.32686 0.00398638 4
389 1 11.6112 0.886976 4.43889 -1.80707 2.92167 -0.0972496 1 -7.37067 0.00735154 4
390 1 11.6183 2.66879 6.24589 1.09197 -4.24357 1.14003 1 -7.34604 0.0127597 4
391 1 8.88111 3.5277 5.34713 0.666435 3.86094 -7.48465 1 -7.32378 0.0444231 4
392 1 12.5048 3.54263 5.38293 0.986053 -0.505032 -1.38071 1 -7.33924 0.00195052 4
393 1 8.87257 1.79841 7.1615 -4.47481 -10.7012 -7.32397 1 -7.33488 0.117128 4
394 1 9.81305 2.65226 8.02629 -2.80963 -3.80746 -4.79377 1 -7.31321 0.0282401 4
395 1 12.4894 1.76771 7.16177 3.09981 -0.630558 4.31608 1 -7.30685 0.0178232 4
396 1 11.6045 0.92143 8.06886 8.99273 4.02191 2.27492 1 -7.37412 0.0636245 4
397 1 10.7041 3.55633 7.16057 -7.57628 0.878821 -10.8173 1 -7.35687 0.109041 4
398 1 13.3883 0.905065 6.2224 4.04229 -0.768364 3.14164 1 -7.32501 0.0166813 4
399 1 13.3781 2.64271 4.46926 -2.19255 11.3101 -2.44232 1 -7.26556 0.086324 4
400 1 14.316 1.79249 5.37995 6.32617 -3.56816 3.81658 1 -7.37395 0.0419008 4
401 1 15.1735 0.895306 4.46194 -10.6424 -7.08759 -3.47024 1 -7.3324 0.109259 4
402 1 15.2384 2.64684 6.27334 2.25754 3.18392 -2.27426 1 -7.38983 0.0127013 4
403 1 17.0138 0.849599 6.26735 7.00169 -3.76519 -0.245944 1 -7.29188 0.0393752 4
404 1 16.9548 2.67288 4.45541 -0.0182245 -2.62154 2.25339 1 -7.32708 0.00743833 4
405 1 16.0934 3.55505 5.37695 2.4597 0.111763 -0.823933 1 -7.28708 0.00419608 4
406 1 13.3869 2.70388 8.05705 -1.44137 -1.22853 1.07023 1 -7.31251 0.00294546 4
407 1 16.0856 1.78617 7.18331 5.64662 0.270678 2.61085 1 -7.31967 0.024134 4
408 1 15.1781 0.85956 8.08958 -1.75964 -0.914817 -0.484959 1 -7.31106 0.00259452 4
409 1 16.9452 2.66881 8.05267 0.911368 -2.61774 -0.688305 1 -7.35015 0.00507707 4
410 1 14.3088 3.54816 7.19637 12.3284 -3.62311 -10.8483 1 -7.33961 0.176023 4
412 1 17.8606 1.75137 5.38704 7.24958 -5.85872 5.87927 1 -7.33747 0.0755916 4
413 1 18.7645 0.917893 4.48801 -8.26815 2.03629 -3.4052 1 -7.34458 0.0523486 4
414 1 18.7406 2.65447 6.25998 -3.03971 7.3517 -6.94955 1 -7.3758 0.0694526 4
415 1 20.5017 0.880975 6.28989 -3.66245 -1.77469 -3.22395 1 -7.29357 0.0167787 4
416 1 20.5072 2.69372 4.4603 -5.68401 -0.570853 5.51911 1 -7.30168 0.0392716 4
417 1 19.6482 3.56159 5.4126 -3.12296 -3.08983 -7.70146 1 -7.33515 0.0489304 4
418 1 19.5951 1.81247 7.16803 -1.2919 0.936649 -0.888996 1 -7.34919 0.00207681 4
419 1 18.7773 0.913805 8.07658 7.7739 -0.997246 -0.252902 1 -7.28485 0.0382742 4
420 1 20.497 2.65993 8.04163 -1.33211 -5.46293 8.32722 1 -7.34978 0.0628406 4
421 1 17.8547 3.56184 7.15982 -5.85073 -5.5781 -0.855373 1 -7.33419 0.0411287 4
423 1 0.881667 4.48103 4.49893 -3.87097 4.86725 -6.69329 1 -7.41052 0.0519568 4
424 1 0.908624 6.2486 6.29682 2.15703 0.256276 -1.24899 1 -7.38487 0.00390785 4
425 1 2.66208 4.44614 6.34931 -1.96552 2.69101 -6.64923 1 -7.23713 0.0344308 4
426 1 2.67002 6.28619 4.46542 -4.89033 -0.752016 4.15633 1 -7.31803 0.02599 4
427 1 3.57721 5.33511 5.3818 1.0837 -2.86634 3.49335 1 -7.16176 0.0134405 4
428 1 1.80473 7.13333 5.39544 -0.387783 -5.05424 -8.47426 1 -7.37987 0.060692 4
429 1 0.876163 8.02239 4.53923 1.22002 -0.504974 -0.3816 1 -7.29691 0.0011758 4
430 1 2.6604 8.04534 6.30447 8.9277 -0.368132 -3.14877 1 -7.37787 0.0558653 4
431 1 1.7494 5.36068 7.17441 3.0254 3.97309 2.87833 1 -7.39293 0.0206791 4
432 1 0.908841 4.499 8.05641 4.94513 -3.21484 0.341707 1 -7.28711 0.0217265 4
433 1 2.67214 6.27946 8.05668 1.79296 0.199945 4.1107 1 -7.28025 0.0125434 4
434 1 0.871081 8.06241 8.09619 -3.51238 -5.09268 3.30551 1 -7.30344 0.0306225 4