ITEM: TIMESTEP
49125000
ITEM: NUMBER OF ATOMS
3060
ITEM: BOX BOUNDS pp pp mm
0.0000000000000000e+00 2.1394294200000001e+01
0.0000000000000000e+00 2.1394294200000001e+01
-5.3491084073550004e-03 5.3485735499999997e+01
ITEM: ATOMS id type x y z vx vy vz c_clusts c_atom_pe c_atom_ke c_atom_coord
1 1 0 0 0 0 0 0 1 -3.32764 0 2
2 1 1.78286 1.78286 0 0 0 0 1 -3.33118 0 2
3 1 0.891429 0.891429 0.891429 0 0 0 1 -7.01523 0 4
4 1 0.890224 2.65177 2.69986 1.69812 -3.71787 -1.01981 1 -7.32647 0.0110457 4
5 1 2.65317 0.86316 2.71351 4.23993 3.93082 8.89549 1 -7.28627 0.0700591 4
6 1 2.67429 2.67429 0.891429 0 0 0 1 -7.01556 0 4
7 1 3.56572 0 0 0 0 0 1 -3.33659 0 2
8 1 3.55287 1.768 1.75749 9.22718 7.97135 -1.72033 1 -7.33774 0.0943865 4
9 1 0 3.56572 0 0 0 0 1 -3.35509 0 2
10 1 1.77263 3.55911 1.80442 0.174834 7.84884 -6.49107 1 -7.35386 0.0645884 4
11 1 3.56572 3.56572 0 0 0 0 1 -3.34471 0 2
12 1 1.78741 1.75452 3.64819 -3.77515 -0.89662 2.45889 1 -7.33865 0.0131343 4
13 1 3.52577 3.61199 3.57526 -4.15496 -6.07538 -0.0522572 1 -7.31174 0.033721 4
292 1 1.79587 0.00968006 1.77892 5.33631 -0.933388 -3.27153 1 -7.33214 0.0249284 4
56 1 0.0608175 3.56111 3.59997 7.82329 -0.888324 1.47618 1 -7.23873 0.0399424 4
14 1 5.34857 1.78286 0 0 0 0 1 -3.3231 0 2
15 1 4.45714 0.891429 0.891429 0 0 0 1 -7.0422 0 4
16 1 4.428 2.65465 2.66954 6.8459 8.09751 -5.89643 1 -7.30722 0.0916235 4
17 1 6.19583 0.900661 2.70262 0.855231 2.8157 -4.39019 1 -7.3269 0.0173864 4
18 1 6.24 2.67429 0.891429 0 0 0 1 -6.98571 0 4
19 1 7.13143 0 0 0 0 0 1 -3.3284 0 2
20 1 7.15501 1.7666 1.74996 -4.38882 -1.50078 2.95033 1 -7.2531 0.0188088 4
21 1 8.02286 0.891429 0.891429 0 0 0 1 -7.05197 0 4
22 1 8.04021 2.71137 2.68269 6.1908 2.17736 -5.6504 1 -7.26317 0.0466782 4
23 1 5.33436 3.54905 1.79752 4.42333 4.04191 -3.52289 1 -7.34956 0.0300717 4
24 1 7.13143 3.56572 0 0 0 0 1 -3.341 0 2
25 1 5.36504 1.83295 3.51483 3.6913 4.31182 -1.01154 1 -7.33479 0.0206899 4
26 1 7.19365 3.60073 3.61245 -2.51583 -6.3613 1.12628 1 -7.25887 0.0299163 4
306 1 7.10741 -0.00333039 3.55289 4.87641 -7.76314 1.52611 1 -7.35426 0.0537619 4
27 1 5.3371 0.0380773 1.76099 -4.09692 -8.81602 0.061444 1 -7.34248 0.0588259 4
28 1 8.91429 1.78286 0 0 0 0 1 -3.34666 0 2
29 1 9.8461 0.918552 2.64656 3.0874 -1.49939 -5.42801 1 -7.32315 0.025671 4
30 1 9.80572 2.67429 0.891429 0 0 0 1 -7.04515 0 4
31 1 10.6971 0 0 0 0 0 1 -3.34489 0 2
32 1 10.704 1.80193 1.79332 -2.94115 3.4871 -3.3979 1 -7.3542 0.0201392 4
33 1 12.48 1.78286 0 0 0 0 1 -3.30773 0 2
34 1 11.5886 0.891429 0.891429 0 0 0 1 -6.99087 0 4
35 1 11.6356 2.68562 2.68133 5.79374 -1.66749 5.08382 1 -7.38944 0.0387106 4
36 1 8.95689 3.57257 1.78467 -1.94877 -1.42057 -0.951712 1 -7.32941 0.00418361 4
37 1 10.6971 3.56572 0 0 0 0 1 -3.3135 0 2
38 1 12.4895 3.56039 1.77609 -1.39587 -4.64007 -8.11635 1 -7.39163 0.0556162 4
39 1 8.93835 1.82398 3.57397 -1.13744 -4.07867 0.320952 1 -7.23261 0.0112238 4
40 1 12.4974 1.78581 3.59096 7.14747 -10.232 1.90836 1 -7.34754 0.0992279 4
41 1 10.7312 3.55547 3.57199 4.49391 2.49795 -2.7797 1 -7.31486 0.0212631 4
321 1 12.5086 0.0336262 1.77864 6.83536 -4.92211 -3.5107 1 -7.28224 0.0518321 4
320 1 8.90903 0.043736 1.79988 6.01653 4.76763 -7.70526 1 -7.35395 0.073633 4
42 1 13.4229 0.871335 2.70382 -3.07709 8.32258 4.05642 1 -7.36593 0.0592477 4
43 1 13.3714 2.67429 0.891429 0 0 0 1 -7.02293 0 4
44 1 14.2629 0 0 0 0 0 1 -3.30214 0 2
45 1 14.2548 1.74143 1.78061 3.85228 3.25948 0.691144 1 -7.31512 0.016147 4
46 1 16.0457 1.78286 0 0 0 0 1 -3.34124 0 2
47 1 15.1543 0.891429 0.891429 0 0 0 1 -7.03402 0 4
48 1 15.1852 2.6342 2.71577 -3.74267 5.36827 -3.14378 1 -7.30614 0.0328076 4
49 1 16.9774 0.84594 2.70084 7.10538 0.741802 -2.55737 1 -7.31798 0.0358373 4
50 1 16.9371 2.67429 0.891429 0 0 0 1 -7.02733 0 4
51 1 14.2629 3.56572 0 0 0 0 1 -3.33337 0 2
52 1 16.0342 3.56459 1.76982 -6.86268 5.46776 -1.92617 1 -7.34539 0.0502317 4
53 1 16.0605 1.75888 3.58872 10.2005 3.60861 -3.5099 1 -7.35873 0.0805362 4
54 1 14.323 3.57152 3.59036 -5.58217 -2.19288 0.668001 1 -7.36147 0.022666 4
55 1 21.3812 1.75911 1.81815 0.3604 2.04073 -2.85838 1 -7.35718 0.00775842 4
57 1 17.8286 0 0 0 0 0 1 -3.34782 0 2
58 1 17.853 1.78523 1.78501 -1.19415 -0.443606 -1.33046 1 -7.32972 0.00211182 4
59 1 19.6114 1.78286 0 0 0 0 1 -3.33076 0 2
60 1 18.72 0.891429 0.891429 0 0 0 1 -7.02813 0 4
61 1 18.78 2.67077 2.69641 -1.81592 -3.21471 -5.85682 1 -7.33391 0.0298356 4
62 1 20.5179 0.895744 2.71783 4.88793 -0.511552 2.41729 1 -7.3412 0.0186708 4
63 1 20.5029 2.67429 0.891429 0 0 0 1 -7.00332 0 4
64 1 17.8286 3.56572 0 0 0 0 1 -3.33018 0 2
65 1 19.6521 3.55579 1.80658 -7.90956 1.74475 -0.599662 1 -7.37774 0.0410582 4
66 1 19.606 1.75708 3.62394 -0.011791 -0.756491 -4.44055 1 -7.35851 0.0126296 4
67 1 17.8658 3.56207 3.60406 -11.1617 1.44069 -4.29263 1 -7.2782 0.0903052 4
68 1 19.6238 0.0193087 1.76133 -2.20862 2.27498 -2.1201 1 -7.30838 0.00905528 4
349 1 17.846 -0.019113 3.59666 -0.104222 -10.379 2.36445 1 -7.39802 0.0705365 4
69 1 1.78286 5.34857 0 0 0 0 1 -3.35328 0 2
70 1 0.891429 4.45714 0.891429 0 0 0 1 -6.96619 0 4
71 1 0.893385 6.27819 2.73009 4.50872 8.47977 10.1331 1 -7.31042 0.12132 4
72 1 2.69081 4.48464 2.69116 2.91065 9.90921 0.177707 1 -7.35852 0.0664103 4
73 1 2.67429 6.24 0.891429 0 0 0 1 -7.02864 0 4
74 1 3.58578 5.3764 1.77829 11.0782 5.58296 -3.51386 1 -7.38791 0.103475 4
75 1 0 7.13143 0 0 0 0 1 -3.35416 0 2
76 1 1.80116 7.16727 1.77765 -3.74294 -5.33017 -1.09429 1 -7.32014 0.0271488 4
77 1 0.891429 8.02286 0.891429 0 0 0 1 -7.03078 0 4
78 1 2.71248 8.06937 2.66684 -0.227419 1.58683 -0.789594 1 -7.30523 0.00198754 4
79 1 3.56572 7.13143 0 0 0 0 1 -3.30956 0 2
80 1 1.83433 5.38507 3.61951 -3.38653 5.70459 -3.77295 1 -7.32571 0.0362539 4
81 1 3.59551 7.14498 3.60837 -5.60152 1.54502 6.17894 1 -7.26123 0.0447794 4
128 1 0.00778212 5.38191 1.8353 0.490411 6.36184 0.501529 1 -7.30922 0.0254977 4
83 1 5.34857 5.34857 0 0 0 0 1 -3.33427 0 2
84 1 4.45714 4.45714 0.891429 0 0 0 1 -6.99533 0 4
85 1 4.47754 6.22683 2.6489 -0.13061 -3.46316 3.22876 1 -7.33503 0.0139644 4
86 1 6.23087 4.45161 2.65328 -6.51674 -5.01368 3.04391 1 -7.26034 0.0478461 4
87 1 6.24 6.24 0.891429 0 0 0 1 -7.03615 0 4
88 1 7.13696 5.34331 1.7834 -4.08983 -1.77445 -4.29184 1 -7.33263 0.023836 4
89 1 8.02286 4.45714 0.891429 0 0 0 1 -7.00496 0 4
90 1 8.01091 6.1773 2.76818 -2.38295 -3.71262 4.80815 1 -7.31273 0.0265031 4
91 1 5.36468 7.13545 1.77641 -4.99328 -2.2943 -0.750284 1 -7.38072 0.0191456 4
92 1 4.45714 8.02286 0.891429 0 0 0 1 -7.01617 0 4
93 1 6.1954 8.00249 2.6669 1.41704 8.99411 -4.98739 1 -7.33708 0.0670826 4
94 1 7.13143 7.13143 0 0 0 0 1 -3.31904 0 2
95 1 8.02286 8.02286 0.891429 0 0 0 1 -7.01378 0 4
96 1 5.31587 5.35551 3.53175 -1.09703 -0.160014 -1.70823 1 -7.31344 0.00258128 4
97 1 7.14516 7.11428 3.55101 5.05588 -6.07978 -0.394431 1 -7.30175 0.0390144 4
98 1 8.91429 5.34857 0 0 0 0 1 -3.31573 0 2
99 1 9.78997 4.44742 2.67995 -9.45723 4.73729 -2.17333 1 -7.37146 0.0725776 4
100 1 9.80572 6.24 0.891429 0 0 0 1 -7.0172 0 4
101 1 10.6712 5.32304 1.77574 -5.39691 1.54453 -4.75437 1 -7.33962 0.0336834 4
102 1 12.48 5.34857 0 0 0 0 1 -3.34271 0 2
103 1 11.5886 4.45714 0.891429 0 0 0 1 -7.03624 0 4
104 1 11.5906 6.23212 2.64986 3.9681 0.785243 -4.83226 1 -7.37222 0.0247185 4
105 1 8.92804 7.09575 1.81048 -11.2193 -0.978591 -0.782806 1 -7.24792 0.0793242 4
106 1 9.81525 8.00789 2.70163 1.9329 -4.22774 -2.5861 1 -7.3526 0.0176133 4
107 1 10.6971 7.13143 0 0 0 0 1 -3.34242 0 2
108 1 12.4901 7.09246 1.8025 -1.70964 -3.91212 -5.82467 1 -7.32462 0.0324622 4
109 1 11.5886 8.02286 0.891429 0 0 0 1 -6.94884 0 4
110 1 8.91476 5.34275 3.60049 4.32874 1.10915 1.23747 1 -7.36447 0.0133819 4
111 1 12.4622 5.3549 3.57499 -1.23949 5.1738 -1.40312 1 -7.29142 0.0188429 4
112 1 10.7016 7.13294 3.55956 0.303307 -4.27212 1.64847 1 -7.38911 0.0131086 4
113 1 13.4074 4.40045 2.67125 4.34146 -5.06908 4.30874 1 -7.2658 0.0392807 4
114 1 13.3714 6.24 0.891429 0 0 0 1 -7.04735 0 4
115 1 14.2376 5.37457 1.77827 -1.53001 1.45185 -7.96841 1 -7.27731 0.0422904 4
116 1 16.0457 5.34857 0 0 0 0 1 -3.33182 0 2
117 1 15.1543 4.45714 0.891429 0 0 0 1 -6.98738 0 4
118 1 15.1822 6.26993 2.64747 7.69692 -7.57641 4.92463 1 -7.26041 0.0876978 4
119 1 16.9231 4.46316 2.66802 0.21 0.807997 0.790772 1 -7.29025 0.000823022 4
120 1 16.9371 6.24 0.891429 0 0 0 1 -7.00896 0 4
121 1 13.3883 8.05119 2.70659 -3.08645 -0.185762 -11.7136 1 -7.26711 0.0913526 4
122 1 14.2629 7.13143 0 0 0 0 1 -3.35957 0 2
123 1 16.0771 7.14851 1.75193 2.7212 -4.50528 -4.58589 1 -7.38252 0.0303326 4
124 1 15.1543 8.02286 0.891429 0 0 0 1 -7.00444 0 4
125 1 16.946 8.04751 2.66072 -7.20837 -5.19055 -7.00493 1 -7.32028 0.0796528 4
126 1 16.0236 5.30873 3.61025 -6.95831 -0.164564 4.72877 1 -7.30377 0.0440718 4
127 1 14.2732 7.14969 3.57938 6.28861 -9.539 2.96449 1 -7.30603 0.086721 4
82 1 21.3737 7.16902 3.56631 -3.76781 -1.8285 7.74331 1 -7.32256 0.0482371 4
129 1 17.8213 5.32032 1.79728 -0.807064 1.70228 -0.0975585 1 -7.37334 0.00221497 4
130 1 19.6114 5.34857 0 0 0 0 1 -3.33658 0 2
131 1 18.72 4.45714 0.891429 0 0 0 1 -6.99585 0 4
132 1 18.7153 6.22581 2.66739 2.41179 2.11584 0.49752 1 -7.37376 0.00656101 4
133 1 20.512 4.44716 2.68557 -5.70212 2.58399 -1.04982 1 -7.30649 0.0250796 4
134 1 20.5029 6.24 0.891429 0 0 0 1 -6.97625 0 4
135 1 17.8286 7.13143 0 0 0 0 1 -3.3159 0 2
136 1 19.5607 7.11711 1.7808 -1.79438 -4.98645 5.44984 1 -7.36777 0.0359671 4
137 1 18.72 8.02286 0.891429 0 0 0 1 -7.04494 0 4
138 1 20.4709 8.02722 2.63277 1.39547 -2.14079 4.67797 1 -7.33908 0.0176855 4
139 1 19.6023 5.33635 3.58976 1.66846 3.62292 10.7158 1 -7.35098 0.0813743 4
140 1 17.8384 7.10701 3.57421 0.825147 3.86698 4.75408 1 -7.34529 0.0237989 4
141 1 1.78286 8.91429 0 0 0 0 1 -3.32279 0 2
142 1 0.918656 9.78568 2.67396 0.898247 -6.13524 2.95018 1 -7.31523 0.0293483 4
143 1 2.67429 9.80572 0.891429 0 0 0 1 -7.00367 0 4
144 1 3.54667 8.92217 1.76241 3.34891 -4.36435 3.02049 1 -7.34449 0.024515 4
145 1 0 10.6971 0 0 0 0 1 -3.33642 0 2
146 1 1.75234 10.6911 1.83301 4.6283 0.603805 -1.92481 1 -7.33831 0.015866 4
147 1 1.78286 12.48 0 0 0 0 1 -3.33583 0 2
148 1 0.891429 11.5886 0.891429 0 0 0 1 -7.01034 0 4
149 1 2.58842 11.5839 2.69151 5.26623 -0.139923 0.779856 1 -7.26404 0.0176526 4
150 1 3.56572 10.6971 0 0 0 0 1 -3.35606 0 2
151 1 3.57551 12.4867 1.80101 -4.02133 1.87079 -1.33844 1 -7.31501 0.0133587 4
152 1 1.84647 8.93745 3.59651 7.35924 -0.790303 2.92159 1 -7.28806 0.0394112 4
153 1 1.74036 12.4799 3.63599 1.38789 -0.415868 -8.67173 1 -7.33567 0.0481123 4
154 1 3.54433 10.6932 3.56083 3.99312 -2.13502 -1.99791 1 -7.28433 0.0152463 4
205 1 0.021523 8.88733 1.77539 7.79864 -5.71945 -1.6322 1 -7.38269 0.0598743 4
204 1 0.0274687 12.5029 1.75508 12.8013 -1.76385 -1.01066 1 -7.32282 0.104571 4
155 1 5.34857 8.91429 0 0 0 0 1 -3.32437 0 2
156 1 4.46432 9.8075 2.67798 -2.52348 -3.4831 6.50632 1 -7.34142 0.0378635 4
157 1 6.24 9.80572 0.891429 0 0 0 1 -7.01296 0 4
158 1 7.12187 8.90624 1.74903 3.46546 3.00475 -0.496851 1 -7.30841 0.0132482 4
159 1 7.98885 9.79059 2.71574 5.93434 2.8582 1.27494 1 -7.28545 0.0280161 4
160 1 5.34777 10.7004 1.82139 2.96086 -8.23509 0.935883 1 -7.33989 0.0482127 4
161 1 5.34857 12.48 0 0 0 0 1 -3.34269 0 2
162 1 4.45714 11.5886 0.891429 0 0 0 1 -7.01403 0 4
163 1 6.21756 11.5971 2.74308 4.85428 0.818773 -9.27983 1 -7.35889 0.0686846 4
164 1 7.13143 10.6971 0 0 0 0 1 -3.3331 0 2
165 1 7.09207 12.4693 1.80073 6.73773 0.620061 -0.00507769 1 -7.28448 0.0284956 4
166 1 8.02286 11.5886 0.891429 0 0 0 1 -7.04084 0 4
167 1 5.3522 8.89779 3.56356 6.15189 -11.8504 -0.0669925 1 -7.33989 0.110968 4
168 1 5.32459 12.5144 3.61642 -8.53586 -3.29216 0.0674262 1 -7.36205 0.0520994 4
169 1 7.17623 10.711 3.57703 0.0498173 3.52187 6.57176 1 -7.31455 0.0346032 4
170 1 8.91429 8.91429 0 0 0 0 1 -3.33347 0 2
171 1 9.80572 9.80572 0.891429 0 0 0 1 -6.99905 0 4
172 1 10.6718 8.93903 1.77415 -4.29426 -3.4198 -0.884819 1 -7.33797 0.0192446 4
173 1 12.48 8.91429 0 0 0 0 1 -3.3413 0 2
174 1 11.5942 9.79589 2.69999 -4.93485 2.66331 3.05529 1 -7.31781 0.025383 4
175 1 8.86916 10.7388 1.78173 -4.07851 -1.94089 0.444696 1 -7.25889 0.0128214 4
176 1 8.91429 12.48 0 0 0 0 1 -3.33208 0 2
177 1 9.82112 11.5846 2.66186 0.424308 2.82497 10.6538 1 -7.38183 0.0757266 4
178 1 10.6971 10.6971 0 0 0 0 1 -3.32601 0 2
179 1 10.7069 12.4575 1.81728 -0.599608 6.16014 -3.14631 1 -7.3363 0.0300048 4
180 1 12.4758 10.6624 1.77929 -2.32486 -0.256723 -2.48374 1 -7.3161 0.00724494 4
181 1 12.48 12.48 0 0 0 0 1 -3.33245 0 2
182 1 11.5886 11.5886 0.891429 0 0 0 1 -7.00191 0 4
183 1 8.92647 8.8749 3.60141 5.7133 0.0969231 7.37573 1 -7.31355 0.0541838 4
184 1 12.4992 8.89935 3.62157 -0.649542 7.10915 -4.02424 1 -7.32189 0.0418 4
185 1 8.93762 12.4931 3.56705 -7.36645 3.912 -0.649491 1 -7.24298 0.0435637 4
186 1 10.6896 10.6705 3.56152 2.57578 -10.0667 1.83939 1 -7.35102 0.0693108 4
187 1 12.4281 12.4861 3.54358 1.17566 0.952382 0.671857 1 -7.41267 0.00170582 4
188 1 13.3714 9.80572 0.891429 0 0 0 1 -7.05258 0 4
189 1 14.2872 8.96953 1.75598 -0.23472 3.17027 -2.0172 1 -7.33461 0.00882278 4
190 1 16.0457 8.91429 0 0 0 0 1 -3.3101 0 2
191 1 15.1648 9.8143 2.65012 -3.1764 7.96291 -1.64911 1 -7.33121 0.0474394 4
192 1 16.9371 9.80572 0.891429 0 0 0 1 -6.99568 0 4
193 1 13.3357 11.5827 2.67093 0.160588 -7.23709 0.172497 1 -7.31349 0.0326345 4
194 1 14.2629 10.6971 0 0 0 0 1 -3.32695 0 2
195 1 14.2408 12.4497 1.74613 -4.46959 -1.3207 -7.56173 1 -7.35405 0.0491102 4
196 1 16.0869 10.7554 1.77152 -5.5796 0.720846 -2.89725 1 -7.34227 0.0249254 4
197 1 16.0457 12.48 0 0 0 0 1 -3.31839 0 2
198 1 15.1543 11.5886 0.891429 0 0 0 1 -7.02442 0 4
199 1 16.9634 11.6256 2.63253 -2.05864 -1.69827 2.95512 1 -7.38233 0.00986846 4
200 1 16.0627 8.90639 3.5179 0.566202 0.700934 4.99526 1 -7.35807 0.0160365 4
201 1 14.2482 10.6654 3.53541 9.69465 -5.71261 2.26721 1 -7.30896 0.0820111 4
202 1 16.0738 12.4481 3.56253 -1.27305 -0.710737 -5.74498 1 -7.36246 0.0218662 4
203 1 21.3685 10.6877 3.57949 0.828318 -0.836567 -4.88865 1 -7.26534 0.015738 4
206 1 17.8371 8.91133 1.74943 4.72735 3.80448 -8.63443 1 -7.35868 0.0693229 4
207 1 19.6114 8.91429 0 0 0 0 1 -3.33366 0 2
208 1 18.6708 9.78476 2.67079 -2.75878 0.513904 -0.134543 1 -7.31399 0.00491287 4
209 1 20.5029 9.80572 0.891429 0 0 0 1 -7.01068 0 4
210 1 17.8286 10.6971 0 0 0 0 1 -3.30719 0 2
211 1 17.8531 12.5175 1.75934 6.84749 6.84593 -6.6896 1 -7.39332 0.0862095 4
212 1 19.6179 10.684 1.74779 -0.988227 0.0938624 -10.3296 1 -7.31386 0.0670272 4
213 1 19.6114 12.48 0 0 0 0 1 -3.32773 0 2
214 1 18.72 11.5886 0.891429 0 0 0 1 -7.00056 0 4
215 1 20.4897 11.5913 2.66827 -3.25009 -2.26342 -8.92326 1 -7.29542 0.0593239 4
216 1 19.5765 8.88529 3.54541 10.7587 4.38671 -6.44031 1 -7.34388 0.109839 4
217 1 17.8556 10.7145 3.54097 -10.5129 6.19361 -3.13111 1 -7.35963 0.0987703 4
218 1 19.5924 12.4984 3.56676 6.05462 -0.766368 0.537664 1 -7.33991 0.0233627 4
219 1 0.885052 13.3893 2.65938 -3.59261 -0.510222 -3.13704 1 -7.33353 0.0143209 4
220 1 2.67429 13.3714 0.891429 0 0 0 1 -6.99951 0 4
221 1 0 14.2629 0 0 0 0 1 -3.30396 0 2
222 1 1.78312 14.256 1.76239 4.47322 -4.05146 -1.2974 1 -7.35581 0.0237189 4
223 1 1.78286 16.0457 0 0 0 0 1 -3.30967 0 2
224 1 0.891429 15.1543 0.891429 0 0 0 1 -7.05369 0 4
225 1 0.870086 16.9025 2.66296 -2.68581 0.0917681 4.95365 1 -7.30526 0.0197686 4
226 1 2.6742 15.1396 2.68807 -1.75372 -0.149524 3.52675 1 -7.33668 0.00966993 4
227 1 2.67429 16.9371 0.891429 0 0 0 1 -7.0004 0 4
228 1 3.56572 14.2629 0 0 0 0 1 -3.33048 0 2
229 1 3.54142 16.0189 1.74775 1.91941 0.682449 -4.31792 1 -7.34304 0.0141878 4
230 1 1.78983 16.0036 3.55555 2.84176 4.10378 -2.97629 1 -7.35554 0.0210224 4
231 1 3.57276 14.2497 3.61429 -6.61943 5.03899 -3.88723 1 -7.36337 0.0524823 4
233 1 0.00165081 16.0259 1.74474 5.61077 3.34795 0.886365 1 -7.35154 0.0270601 4
232 1 0.0086032 14.2786 3.54792 1.74175 3.93356 -3.00779 1 -7.37956 0.01715 4
234 1 4.43799 13.3965 2.70432 3.48168 10.6647 2.5562 1 -7.32655 0.0824042 4
235 1 6.24 13.3714 0.891429 0 0 0 1 -7.00763 0 4
236 1 7.96631 13.3861 2.71054 3.18436 4.11604 2.10559 1 -7.29831 0.019616 4
237 1 5.37003 14.3036 1.78819 9.94205 -4.14333 -6.93409 1 -7.29989 0.102136 4
238 1 5.34857 16.0457 0 0 0 0 1 -3.34319 0 2
239 1 4.45714 15.1543 0.891429 0 0 0 1 -7.02567 0 4
240 1 4.46492 16.9548 2.63613 1.48914 -2.31475 -2.1286 1 -7.3311 0.00753543 4
241 1 6.28411 15.165 2.73637 -4.70645 0.579975 1.33972 1 -7.31042 0.0151137 4
242 1 6.24 16.9371 0.891429 0 0 0 1 -7.05022 0 4
243 1 7.13143 14.2629 0 0 0 0 1 -3.32764 0 2
244 1 7.16505 16.0617 1.78069 -3.33229 1.47376 -4.0419 1 -7.30807 0.018432 4
245 1 8.02286 15.1543 0.891429 0 0 0 1 -7.02224 0 4
246 1 8.02273 16.9421 2.68369 8.08455 1.50227 -2.93856 1 -7.39376 0.0474612 4
247 1 5.38563 16.0786 3.55167 5.8467 7.56971 -1.04753 1 -7.32372 0.0576253 4
248 1 7.09253 14.2624 3.61248 7.79859 -0.362834 3.97081 1 -7.37096 0.0477507 4
249 1 9.80572 13.3714 0.891429 0 0 0 1 -7.0096 0 4
250 1 11.5687 13.3549 2.70832 3.00635 -2.83888 2.21401 1 -7.31376 0.0136929 4
251 1 8.87052 14.2281 1.77352 0.783857 8.38552 -1.49486 1 -7.31325 0.0455405 4
252 1 8.91429 16.0457 0 0 0 0 1 -3.33975 0 2
253 1 9.72919 15.1258 2.70139 2.71417 2.98125 7.48379 1 -7.28799 0.0449775 4
254 1 9.80572 16.9371 0.891429 0 0 0 1 -7.02714 0 4
255 1 10.6971 14.2629 0 0 0 0 1 -3.35722 0 2
256 1 10.6919 16.06 1.78142 -9.40072 -0.691429 -2.14305 1 -7.26568 0.0581622 4
257 1 12.4695 14.3012 1.77241 -0.125521 1.38086 5.47583 1 -7.28519 0.0198599 4
258 1 12.48 16.0457 0 0 0 0 1 -3.32208 0 2
259 1 11.5886 15.1543 0.891429 0 0 0 1 -7.03864 0 4
260 1 11.5911 16.9433 2.68297 -10.4783 -5.77885 -1.751 1 -7.3628 0.0910339 4
261 1 8.84863 16.0395 3.54028 -7.20313 -2.36876 -6.73781 1 -7.35079 0.064044 4
262 1 10.6217 14.2549 3.57864 -1.93453 -6.8024 4.11936 1 -7.30971 0.0416927 4
263 1 12.4627 16.0489 3.5291 7.38221 1.78655 -3.68861 1 -7.29518 0.0443757 4
264 1 13.3714 13.3714 0.891429 0 0 0 1 -6.97724 0 4
265 1 15.128 13.3512 2.66635 -0.846467 8.58791 3.58108 1 -7.30373 0.0543334 4
266 1 16.9371 13.3714 0.891429 0 0 0 1 -7.00177 0 4
267 1 13.4246 15.1578 2.63901 0.386788 -10.9107 -3.10615 1 -7.30598 0.0801936 4
268 1 13.3714 16.9371 0.891429 0 0 0 1 -7.04484 0 4
269 1 14.2629 14.2629 0 0 0 0 1 -3.31767 0 2
270 1 14.2694 16.0294 1.744 -6.58993 -0.471916 4.91282 1 -7.37226 0.0421916 4
271 1 16.0029 14.2505 1.79805 -0.0389116 -2.07112 -0.544933 1 -7.33402 0.00285568 4
272 1 16.0457 16.0457 0 0 0 0 1 -3.35225 0 2
273 1 15.1543 15.1543 0.891429 0 0 0 1 -7.00966 0 4
274 1 15.1548 16.9269 2.67897 -0.751578 -1.74109 12.7941 1 -7.29815 0.104123 4
275 1 16.8963 15.1926 2.68298 -3.27157 2.33521 2.69592 1 -7.30628 0.01458 4
276 1 16.9371 16.9371 0.891429 0 0 0 1 -7.0243 0 4
277 1 14.2559 14.2294 3.53762 6.44409 -3.25673 -8.43006 1 -7.37518 0.076682 4
278 1 16.0076 16.0796 3.59014 -0.891926 -5.12356 -6.47283 1 -7.36038 0.0429125 4
279 1 18.7341 13.3871 2.63545 3.95425 4.28603 -4.34696 1 -7.34584 0.0329277 4
280 1 20.5029 13.3714 0.891429 0 0 0 1 -7.03084 0 4
281 1 17.8286 14.2629 0 0 0 0 1 -3.32525 0 2
282 1 17.7939 16.059 1.77846 6.4824 6.64754 3.22445 1 -7.35108 0.0601316 4
283 1 19.6511 14.2622 1.77155 5.18516 3.81719 -1.0595 1 -7.32742 0.0265025 4
284 1 19.6114 16.0457 0 0 0 0 1 -3.3076 0 2
285 1 18.72 15.1543 0.891429 0 0 0 1 -6.9875 0 4
286 1 18.6824 16.9659 2.68605 -0.884863 9.76922 -4.1613 1 -7.32218 0.0706685 4
287 1 20.5114 15.2015 2.6839 12.031 8.41668 -2.97748 1 -7.36146 0.139704 4
288 1 20.5029 16.9371 0.891429 0 0 0 1 -7.06569 0 4
289 1 17.8139 14.2916 3.56115 -1.37725 -1.74308 -1.05997 1 -7.34669 0.0037711 4
290 1 19.6032 16.0384 3.55641 -3.96813 6.22297 -1.11023 1 -7.34781 0.0346717 4
291 1 3.57895 21.3761 3.58984 9.48233 -3.15476 11.978 1 -7.32674 0.15146 4
293 1 0 17.8286 0 0 0 0 1 -3.3318 0 2
294 1 1.75191 17.8243 1.77787 -1.0328 5.16645 -4.70753 1 -7.31909 0.0310713 4
295 1 1.78286 19.6114 0 0 0 0 1 -3.33335 0 2
296 1 0.891429 18.72 0.891429 0 0 0 1 -7.0164 0 4
297 1 0.884618 20.4829 2.67606 0.819199 2.72814 5.13403 1 -7.27956 0.0214564 4
298 1 2.67531 18.7302 2.6785 3.21977 2.31755 -4.62395 1 -7.30845 0.0231038 4
299 1 2.67429 20.5029 0.891429 0 0 0 1 -7.03432 0 4
300 1 3.56572 17.8286 0 0 0 0 1 -3.33077 0 2
301 1 3.51312 19.6198 1.76958 0.232294 7.76294 9.44302 1 -7.35368 0.0930451 4
302 1 1.7749 19.6137 3.60472 3.73963 1.90992 -2.12996 1 -7.34843 0.0137988 4
303 1 3.57695 17.8044 3.534 -9.63521 2.69258 3.85303 1 -7.38151 0.0715374 4
304 1 -0.0139453 17.8514 3.53984 -8.22427 -4.02215 -2.19351 1 -7.34103 0.0551643 4
350 1 0.00210824 21.3974 3.63142 -5.90407 1.97418 13.7682 1 -7.33662 0.142112 4
307 1 5.38019 17.8172 1.78497 -1.84926 -4.14911 -2.84381 1 -7.36654 0.0178774 4
308 1 5.34857 19.6114 0 0 0 0 1 -3.33642 0 2
309 1 4.45714 18.72 0.891429 0 0 0 1 -6.95759 0 4
310 1 4.43006 20.5232 2.67453 -6.71883 5.96583 0.562519 1 -7.30547 0.0504478 4
311 1 6.20376 18.743 2.69175 -0.364211 10.2645 5.22616 1 -7.33048 0.082661 4
312 1 6.24 20.5029 0.891429 0 0 0 1 -7.00741 0 4
313 1 7.13143 17.8286 0 0 0 0 1 -3.3257 0 2
314 1 7.14309 19.6351 1.7775 -1.38583 0.859309 -4.18088 1 -7.30348 0.0125348 4
315 1 8.02286 18.72 0.891429 0 0 0 1 -7.01972 0 4
316 1 8.01658 20.5643 2.70952 6.90723 2.39099 -0.979257 1 -7.36953 0.0338511 4
317 1 5.33157 19.6272 3.5862 -2.48857 5.49439 2.42268 1 -7.3731 0.0262979 4
318 1 7.13363 17.8574 3.57097 -2.72735 -6.00382 -0.24747 1 -7.29304 0.0271039 4
319 1 10.6964 21.389 3.56765 -1.62094 0.331216 -3.71172 1 -7.35224 0.0102787 4
322 1 8.91303 17.8206 1.78173 -9.21787 -2.19103 -3.9482 1 -7.33124 0.0655776 4
323 1 8.91429 19.6114 0 0 0 0 1 -3.32908 0 2
324 1 9.79808 18.7678 2.65765 4.58279 -1.84324 -3.30812 1 -7.3426 0.0219985 4
325 1 9.80572 20.5029 0.891429 0 0 0 1 -6.98987 0 4
326 1 10.6971 17.8286 0 0 0 0 1 -3.32595 0 2
327 1 10.6672 19.622 1.75762 -1.35799 -0.101198 -3.15566 1 -7.41137 0.00735245 4
328 1 12.496 17.8215 1.77561 -2.54215 4.19784 -6.13694 1 -7.36288 0.0384325 4
329 1 12.48 19.6114 0 0 0 0 1 -3.34208 0 2
330 1 11.5886 18.72 0.891429 0 0 0 1 -7.01939 0 4
331 1 11.5428 20.5165 2.67013 6.09093 0.397004 0.534771 1 -7.26025 0.0233678 4
332 1 8.90374 19.647 3.58697 -3.58167 1.25711 1.43174 1 -7.38087 0.0102442 4
333 1 10.6316 17.8273 3.55276 8.10714 3.40313 0.625585 1 -7.30896 0.0483615 4
334 1 12.5016 19.6178 3.55576 1.73387 -9.2465 -6.98601 1 -7.26914 0.0854644 4
335 1 16.0508 21.3831 1.76161 0.0290455 0.103287 2.72137 1 -7.30156 0.00461675 4
336 1 14.2907 21.3814 3.58418 4.52411 8.77811 -4.82231 1 -7.40817 0.075175 4
337 1 13.4022 18.7443 2.67649 -2.62322 6.69277 0.101408 1 -7.33835 0.0321699 4
338 1 13.3714 20.5029 0.891429 0 0 0 1 -7.01906 0 4
339 1 14.2629 17.8286 0 0 0 0 1 -3.33593 0 2
340 1 14.2768 19.6286 1.76578 -3.73433 -2.25892 -3.88411 1 -7.36638 0.021246 4
341 1 16.0888 17.8329 1.76297 -4.58991 -1.99561 0.829426 1 -7.32092 0.0160198 4
342 1 16.0457 19.6114 0 0 0 0 1 -3.31625 0 2
343 1 15.1543 18.72 0.891429 0 0 0 1 -7.01817 0 4
344 1 15.1556 20.5368 2.70485 -1.72191 -1.84205 4.55555 1 -7.31076 0.0168747 4
345 1 16.9744 18.7488 2.68975 -5.751 3.27224 0.118173 1 -7.34514 0.0272595 4
346 1 16.9371 20.5029 0.891429 0 0 0 1 -7.0442 0 4
347 1 14.2659 17.8281 3.57336 3.43625 4.03925 -3.81134 1 -7.30867 0.0265463 4
348 1 16.1049 19.6521 3.59 1.79909 -2.34709 4.3953 1 -7.37542 0.0174679 4
305 1 21.3688 19.6381 1.76369 -7.10696 3.74989 -6.45683 1 -7.3627 0.0661397 4
351 1 17.8286 17.8286 0 0 0 0 1 -3.32174 0 2
352 1 17.8162 19.6304 1.81257 -2.57963 -1.51714 -4.23919 1 -7.30644 0.01676 4
353 1 19.6105 17.7805 1.77954 -1.40185 5.43227 2.60775 1 -7.31483 0.0238234 4
354 1 19.6114 19.6114 0 0 0 0 1 -3.34396 0 2
355 1 18.72 18.72 0.891429 0 0 0 1 -6.93557 0 4
356 1 18.7361 20.493 2.72336 -1.29245 -0.0358976 -0.829036 1 -7.28534 0.00146831 4
357 1 20.4482 18.7415 2.66862 4.13292 0.313757 1.93684 1 -7.31469 0.0130279 4
358 1 20.5029 20.5029 0.891429 0 0 0 1 -7.03687 0 4
359 1 17.834 17.8708 3.52962 -0.0799353 -2.85533 1.52586 1 -7.37089 0.00652771 4
360 1 19.5734 19.6213 3.55531 -3.24874 1.55818 -3.6311 1 -7.29694 0.0162871 4
361 1 0.895477 0.894299 4.50649 0.267367 -2.04916 5.52464 1 -7.36402 0.0216556 4
362 1 0.967606 2.66773 6.29534 6.85265 -4.93624 1.32449 1 -7.34361 0.0454866 4
363 1 2.69533 0.892019 6.25232 1.67502 5.68278 6.16071 1 -7.27838 0.0454707 4
364 1 2.67077 2.68738 4.4889 -6.78483 -0.321329 0.724875 1 -7.37609 0.0290441 4
365 1 3.56647 1.81625 5.30671 6.70384 -16.0486 1.22479 1 -7.34545 0.189216 4
366 1 1.80964 3.56001 5.37295 4.36848 -11.9404 7.74724 1 -7.31167 0.137977 4
367 1 1.7998 1.7908 7.16867 -0.865277 -1.04681 3.87647 1 -7.28236 0.0105013 4
368 1 0.912693 0.869441 8.07078 -7.19639 2.07103 -1.57508 1 -7.32916 0.0364481 4
369 1 2.68615 2.75096 8.03697 11.7111 1.7256 4.77173 1 -7.30184 0.101392 4
370 1 3.61119 3.58984 7.10513 5.36597 -0.891357 2.4725 1 -7.38376 0.0222215 4
411 1 0.0409941 1.80575 5.42548 -2.79512 6.23558 -0.29961 1 -7.30131 0.0291201 4
371 1 0.0189753 3.57425 7.16007 1.65929 5.4268 -3.91522 1 -7.26489 0.0295854 4
372 1 4.45091 0.938325 4.49028 2.66013 5.54121 -4.42008 1 -7.26294 0.0356764 4
373 1 4.43762 2.69295 6.24356 2.3587 -3.768 -2.77806 1 -7.36168 0.0171036 4
374 1 6.28094 0.916592 6.26723 6.78614 -4.78376 0.685594 1 -7.3388 0.0432002 4
375 1 6.23483 2.69827 4.47171 -2.52612 -5.56107 -0.372282 1 -7.29889 0.023307 4
376 1 7.15628 1.77979 5.35146 -5.50806 -3.42342 -6.04246 1 -7.36679 0.048904 4
377 1 7.98723 0.882098 4.4395 7.87411 -1.17424 -8.03392 1 -7.32215 0.0796234 4
378 1 8.04133 2.67813 6.24362 -2.12663 -0.742493 4.44615 1 -7.31736 0.0154624 4
379 1 5.36266 3.58161 5.3575 1.01383 3.81464 -1.46282 1 -7.36428 0.0110289 4
380 1 5.34625 1.828 7.14536 -1.69657 -5.3804 4.8799 1 -7.31549 0.0346321 4
381 1 4.45984 0.907866 8.02951 0.315991 -1.55465 -2.86801 1 -7.36617 0.00668629 4
382 1 6.299 2.71216 8.02163 -1.8354 9.92585 -4.27355 1 -7.33111 0.0747872 4
383 1 8.09885 0.884387 8.05231 7.334 2.66 3.90452 1 -7.33899 0.0473719 4
384 1 7.17691 3.55394 7.15752 -9.43128 -2.32251 -0.721584 1 -7.3565 0.0590458 4
665 1 7.15187 0.0152021 7.16846 5.79911 -2.07092 -4.31413 1 -7.32622 0.0351858 4
385 1 5.35406 0.0413355 5.43312 -2.87274 -2.58595 -2.50956 1 -7.33785 0.0132189 4
386 1 9.81013 0.87211 6.29584 -0.239251 1.94086 9.72825 1 -7.3655 0.061286 4
387 1 9.84971 2.69571 4.49192 -3.55374 -0.772504 -1.61131 1 -7.37779 0.0098481 4
388 1 10.7026 1.78798 5.4012 -6.6879 -3.19009 1.76337 1 -7.33492 0.0361095 4
389 1 11.5902 0.895627 4.49464 -2.23318 -3.74301 10.0053 1 -7.34486 0.0741327 4
390 1 11.5918 2.64814 6.26771 -1.36305 0.0499466 1.23882 1 -7.29429 0.00211319 4
391 1 8.96708 3.60598 5.36386 3.30522 3.15006 -8.60082 1 -7.33612 0.0590193 4
392 1 12.4287 3.57409 5.36644 6.75715 1.3169 -1.32534 1 -7.34238 0.0305922 4
393 1 8.94854 1.75731 7.18407 4.81212 0.696052 1.91161 1 -7.31913 0.0169893 4
394 1 9.81258 2.67498 8.03501 5.13298 5.82071 8.38466 1 -7.26264 0.0812458 4
395 1 12.4661 1.72038 7.18314 0.540444 2.44473 -2.29903 1 -7.33925 0.0071917 4
396 1 11.5846 0.8707 8.06365 -0.915746 3.02162 -7.33787 1 -7.33254 0.039719 4
397 1 10.6868 3.59554 7.12425 -1.28341 -2.79259 -0.998785 1 -7.32144 0.00650015 4
680 1 12.4833 -0.000663726 5.39358 -1.74485 -3.96495 -4.42972 1 -7.3709 0.0238935 4
679 1 8.92399 0.0370958 5.35115 0.164785 0.898392 -4.75464 1 -7.32608 0.0145902 4
398 1 13.3697 0.851066 6.27077 -0.633672 -4.96472 -2.82034 1 -7.36106 0.0205428 4
399 1 13.3708 2.67578 4.50042 -3.34907 6.01754 -1.47802 1 -7.26439 0.0308795 4
400 1 14.2548 1.77767 5.41949 -0.163506 -3.73469 -0.564556 1 -7.35622 0.00889656 4
401 1 15.1671 0.869352 4.48749 6.04546 2.45054 1.45617 1 -7.29278 0.0278057 4
402 1 15.1397 2.6863 6.26354 -11.6526 0.782487 1.82949 1 -7.404 0.0869796 4
403 1 16.9468 0.95461 6.27429 2.36698 -6.17725 5.0816 1 -7.3207 0.0433107 4
404 1 16.9384 2.67842 4.51774 -0.473308 9.75805 -1.82392 1 -7.29038 0.0614772 4
405 1 16.0343 3.55812 5.40537 -2.07593 -2.26912 3.76455 1 -7.35403 0.014708 4
406 1 13.3446 2.67408 8.02141 -0.908539 -4.49541 6.64467 1 -7.30524 0.0405734 4
407 1 16.0181 1.85921 7.17987 1.7792 -4.34025 3.08246 1 -7.30009 0.0196095 4
408 1 15.1332 0.901631 8.04237 -1.30954 -1.88707 -4.59045 1 -7.34286 0.0163998 4
409 1 16.9377 2.63961 8.08714 8.48062 4.61782 3.99749 1 -7.34806 0.0679846 4
410 1 14.2054 3.58492 7.12001 11.8865 0.662223 -0.372107 1 -7.36706 0.0883012 4
694 1 16.0579 0.0154828 5.38322 5.48832 -1.04073 6.66649 1 -7.32601 0.0470846 4
412 1 17.859 1.80002 5.43651 1.42184 3.72391 -3.44448 1 -7.32885 0.0172745 4
413 1 18.7151 0.880972 4.51362 -0.914596 2.73426 -7.20445 1 -7.40594 0.0374805 4
414 1 18.7487 2.7338 6.26673 0.105904 0.485853 -0.689981 1 -7.35397 0.000450227 4
415 1 20.5275 0.874841 6.28144 5.64941 0.501001 4.77151 1 -7.28414 0.0341925 4
416 1 20.4887 2.66797 4.52608 -0.421044 1.84687 2.10422 1 -7.27411 0.00498933 4
417 1 19.6239 3.60253 5.35275 -2.17169 -0.32804 -4.58725 1 -7.40866 0.0161001 4
418 1 19.6239 1.82326 7.20124 1.43186 -4.30383 2.35873 1 -7.2585 0.0162682 4
419 1 18.7124 0.869247 8.0776 2.59721 0.00638111 3.94809 1 -7.25895 0.0139006 4
420 1 20.5345 2.68936 8.08384 2.87868 5.27343 2.04292 1 -7.2938 0.0250647 4
421 1 17.8119 3.58463 7.17066 2.20247 -3.1795 5.81234 1 -7.27457 0.0303392 4
709 1 17.7551 0.0399764 7.13633 -11.129 6.21899 1.23373 1 -7.27464 0.10211 4
422 1 19.599 0.0274911 5.38601 11.4284 -2.83358 2.3544 1 -7.31109 0.0897421 4
423 1 0.937169 4.50259 4.45169 1.79826 3.02897 1.33908 1 -7.35021 0.00883938 4
424 1 0.890736 6.27929 6.28816 -2.18911 2.11215 6.04111 1 -7.34533 0.028475 4
425 1 2.70709 4.49969 6.25794 8.20913 5.34298 -3.93174 1 -7.30113 0.0693357 4
426 1 2.66645 6.29734 4.51834 -1.8509 -5.15816 7.43033 1 -7.39088 0.0530571 4
427 1 3.55418 5.35929 5.35149 1.44092 -0.693595 4.21327 1 -7.31619 0.0126408 4
428 1 1.79263 7.14341 5.34661 -2.41848 -6.8405 -5.00763 1 -7.30693 0.0483736 4
429 1 0.902497 8.06472 4.49398 2.67484 -0.969833 -6.37236 1 -7.33208 0.0303136 4
430 1 2.70714 8.05205 6.23036 5.32976 8.36126 3.76525 1 -7.33976 0.0700193 4
431 1 1.81005 5.37957 7.16688 -2.16794 1.51912 5.06703 1 -7.35988 0.0203425 4