ITEM: TIMESTEP
49125375
ITEM: NUMBER OF ATOMS
3060
ITEM: BOX BOUNDS pp pp mm
0.0000000000000000e+00 2.1394294200000001e+01
0.0000000000000000e+00 2.1394294200000001e+01
-5.3491084073550004e-03 5.3485735499999997e+01
ITEM: ATOMS id type x y z vx vy vz c_clusts c_atom_pe c_atom_ke c_atom_coord
1 1 0 0 0 0 0 0 1 -3.33999 0 2
2 1 1.78286 1.78286 0 0 0 0 1 -3.3473 0 2
3 1 0.891429 0.891429 0.891429 0 0 0 1 -7.02015 0 4
4 1 0.924259 2.64966 2.69628 2.9893 5.81187 -1.38791 1 -7.34494 0.0277852 4
5 1 2.71558 0.916566 2.75036 6.33053 5.19595 -2.47423 1 -7.23561 0.0455587 4
6 1 2.67429 2.67429 0.891429 0 0 0 1 -6.99116 0 4
7 1 3.56572 0 0 0 0 0 1 -3.34028 0 2
8 1 3.60455 1.82471 1.79903 0.531771 2.41048 7.4659 1 -7.30363 0.0384864 4
9 1 0 3.56572 0 0 0 0 1 -3.34911 0 2
10 1 1.79959 3.61145 1.76492 4.22295 1.06976 0.599646 1 -7.26984 0.012036 4
11 1 3.56572 3.56572 0 0 0 0 1 -3.32055 0 2
12 1 1.76078 1.7727 3.59917 0.0721924 2.85524 -7.88242 1 -7.36411 0.0437504 4
13 1 3.53723 3.52853 3.57012 4.47174 -3.49377 -0.962558 1 -7.2654 0.0206206 4
292 1 1.79587 0.00968006 1.77892 5.33631 -0.933388 -3.27153 1 -7.26935 0.0249284 4
56 1 0.0411281 3.56735 3.59584 -9.54601 2.52368 -1.74684 1 -7.31208 0.0625829 4
55 1 0.0194887 1.79231 1.78388 4.61867 2.33584 -2.22848 1 -7.33946 0.0197648 4
14 1 5.34857 1.78286 0 0 0 0 1 -3.33261 0 2
15 1 4.45714 0.891429 0.891429 0 0 0 1 -6.9766 0 4
16 1 4.48479 2.74682 2.63888 4.02253 5.10694 2.40699 1 -7.29418 0.0299108 4
17 1 6.2607 0.903602 2.62544 8.04014 -3.26338 -5.00974 1 -7.21928 0.062486 4
18 1 6.24 2.67429 0.891429 0 0 0 1 -7.03441 0 4
19 1 7.13143 0 0 0 0 0 1 -3.35321 0 2
20 1 7.15501 1.7666 1.74996 -4.38882 -1.50078 2.95033 1 -7.38774 0.0188088 4
21 1 8.02286 0.891429 0.891429 0 0 0 1 -7.02182 0 4
22 1 8.07006 2.67619 2.64947 -4.23784 -9.25262 0.548954 1 -7.32898 0.0646524 4
23 1 5.36691 3.58645 1.75103 1.05449 2.9507 -3.04724 1 -7.39043 0.011891 4
24 1 7.13143 3.56572 0 0 0 0 1 -3.30123 0 2
25 1 5.35128 1.8175 3.57573 -2.9742 -5.96161 5.97454 1 -7.32118 0.049845 4
26 1 7.13368 3.54981 3.58516 -6.45585 -2.34079 -6.20321 1 -7.28129 0.0533028 4
28 1 8.91429 1.78286 0 0 0 0 1 -3.30859 0 2
29 1 9.8233 0.911513 2.66225 -4.43962 -0.172945 4.62877 1 -7.36734 0.0256226 4
30 1 9.80572 2.67429 0.891429 0 0 0 1 -7.01906 0 4
31 1 10.6971 0 0 0 0 0 1 -3.32227 0 2
32 1 10.7225 1.8044 1.76212 4.48913 -3.78308 0.375215 1 -7.34387 0.0215389 4
33 1 12.48 1.78286 0 0 0 0 1 -3.33291 0 2
34 1 11.5886 0.891429 0.891429 0 0 0 1 -6.99387 0 4
35 1 11.625 2.6527 2.70004 -6.61578 -3.46359 -2.16096 1 -7.3016 0.0376161 4
36 1 8.88834 3.57252 1.76934 -6.0073 2.03196 -1.45914 1 -7.37616 0.026357 4
37 1 10.6971 3.56572 0 0 0 0 1 -3.31571 0 2
38 1 12.4895 3.56039 1.77609 -1.39587 -4.64007 -8.11635 1 -7.30786 0.0556162 4
39 1 8.93587 1.76896 3.55095 1.70058 -3.99261 -5.86889 1 -7.4306 0.0331609 4
40 1 12.5235 1.73437 3.61543 -6.24609 3.3063 3.64346 1 -7.31341 0.0393498 4
41 1 10.7281 3.57031 3.55245 -5.88422 -2.12933 -0.00100661 1 -7.33074 0.024373 4
320 1 8.95965 0.0291013 1.73974 1.5314 -7.35674 -1.5207 1 -7.36592 0.0365858 4
319 1 10.7033 0.0252043 3.55594 4.15089 3.21404 1.60192 1 -7.30197 0.0187513 4
42 1 13.3767 0.920402 2.70519 -0.663818 -1.25711 -4.59293 1 -7.34114 0.014388 4
43 1 13.3714 2.67429 0.891429 0 0 0 1 -6.9961 0 4
44 1 14.2629 0 0 0 0 0 1 -3.33756 0 2
45 1 14.2972 1.81413 1.80468 0.45559 7.55572 1.7229 1 -7.34738 0.0375104 4
46 1 16.0457 1.78286 0 0 0 0 1 -3.31684 0 2
47 1 15.1543 0.891429 0.891429 0 0 0 1 -7.0306 0 4
48 1 15.1557 2.6913 2.65989 -0.147438 4.30026 -4.12586 1 -7.30172 0.022119 4
49 1 16.9877 0.889428 2.66954 -5.28575 5.01601 -1.89771 1 -7.28783 0.035292 4
50 1 16.9371 2.67429 0.891429 0 0 0 1 -7.02202 0 4
51 1 14.2629 3.56572 0 0 0 0 1 -3.32279 0 2
52 1 16.0342 3.56459 1.76982 -6.86268 5.46776 -1.92617 1 -7.37654 0.0502317 4
53 1 16.13 1.79762 3.58282 0.28945 5.1032 0.767752 1 -7.26772 0.0166287 4
54 1 14.2437 3.52826 3.59954 -4.96203 -1.65141 0.315264 1 -7.33523 0.0170846 4
336 1 14.3039 0.0493017 3.59128 -0.366893 0.772149 4.24517 1 -7.26674 0.0116719 4
350 1 21.3886 0.0172499 3.66441 3.19887 -0.567476 -6.58273 1 -7.36812 0.0335408 4
57 1 17.8286 0 0 0 0 0 1 -3.33391 0 2
58 1 17.8425 1.76928 1.78412 -1.0785 -2.30794 -0.80505 1 -7.3845 0.00444278 4
59 1 19.6114 1.78286 0 0 0 0 1 -3.32615 0 2
60 1 18.72 0.891429 0.891429 0 0 0 1 -7.03451 0 4
61 1 18.6992 2.6521 2.66589 -11.3702 2.07979 -0.150197 1 -7.35036 0.0831746 4
62 1 20.5226 0.879463 2.72 -2.71329 -0.057394 -3.57718 1 -7.30276 0.012549 4
63 1 20.5029 2.67429 0.891429 0 0 0 1 -7.01506 0 4
64 1 17.8286 3.56572 0 0 0 0 1 -3.33181 0 2
65 1 19.58 3.57744 1.78087 -4.04296 1.74181 -2.60889 1 -7.3305 0.0162987 4
66 1 19.6315 1.78875 3.57259 3.41266 6.68644 -5.22601 1 -7.3305 0.0520759 4
67 1 17.7826 3.58373 3.55319 -1.16254 2.1932 -3.12507 1 -7.32978 0.00991382 4
68 1 19.6238 0.0193087 1.76133 -2.20862 2.27498 -2.1201 1 -7.35188 0.00905528 4
69 1 1.78286 5.34857 0 0 0 0 1 -3.32213 0 2
70 1 0.891429 4.45714 0.891429 0 0 0 1 -7.00781 0 4
71 1 0.927162 6.3166 2.7391 -2.13657 -2.89153 -8.67534 1 -7.31458 0.0548902 4
72 1 2.68249 4.54855 2.67203 -3.76145 -0.39335 -4.008 1 -7.23595 0.0189014 4
73 1 2.67429 6.24 0.891429 0 0 0 1 -7.00488 0 4
74 1 3.61195 5.37661 1.76412 -6.31911 -3.69299 2.07852 1 -7.34066 0.036032 4
75 1 0 7.13143 0 0 0 0 1 -3.33849 0 2
76 1 1.77688 7.12367 1.80305 0.685868 -0.332989 4.13451 1 -7.33586 0.0110017 4
77 1 0.891429 8.02286 0.891429 0 0 0 1 -7.03023 0 4
78 1 2.68237 8.02289 2.68933 -5.34352 -8.63622 3.60312 1 -7.33688 0.0722762 4
79 1 3.56572 7.13143 0 0 0 0 1 -3.31726 0 2
80 1 1.78775 5.42513 3.57229 -2.6265 -1.34103 -1.52595 1 -7.35853 0.0068625 4
81 1 3.56175 7.15201 3.5973 0.43297 -2.19074 -7.18089 1 -7.35212 0.0351994 4
128 1 0.0100223 5.39236 1.8025 0.090967 -3.84267 -4.95096 1 -7.26256 0.0244529 4
83 1 5.34857 5.34857 0 0 0 0 1 -3.29991 0 2
84 1 4.45714 4.45714 0.891429 0 0 0 1 -7.0612 0 4
85 1 4.45909 6.26161 2.69344 -1.00146 7.82482 4.18584 1 -7.31231 0.0496397 4
86 1 6.21389 4.42883 2.70439 3.89345 0.830074 3.48927 1 -7.34633 0.0174422 4
87 1 6.24 6.24 0.891429 0 0 0 1 -7.02082 0 4
88 1 7.10466 5.31688 1.78244 -1.21534 -2.20695 4.61962 1 -7.32487 0.0172341 4
89 1 8.02286 4.45714 0.891429 0 0 0 1 -7.03222 0 4
90 1 8.0137 6.20771 2.67906 1.54418 7.71405 -16.9665 1 -7.31628 0.217696 4
91 1 5.36468 7.13545 1.77641 -4.99328 -2.2943 -0.750284 1 -7.3479 0.0191456 4
92 1 4.45714 8.02286 0.891429 0 0 0 1 -7.01083 0 4
93 1 6.2975 8.04928 2.6398 13.7535 -2.06682 2.72186 1 -7.32061 0.125007 4
94 1 7.13143 7.13143 0 0 0 0 1 -3.33693 0 2
95 1 8.02286 8.02286 0.891429 0 0 0 1 -7.00506 0 4
96 1 5.34187 5.32889 3.57448 2.69482 -3.87003 9.16713 1 -7.35018 0.0661486 4
97 1 7.13753 7.10351 3.58455 -3.52115 4.64815 1.74551 1 -7.31676 0.0230613 4
98 1 8.91429 5.34857 0 0 0 0 1 -3.32917 0 2
99 1 9.78751 4.47757 2.67068 8.0576 -0.352842 -0.80796 1 -7.34999 0.0408948 4
100 1 9.80572 6.24 0.891429 0 0 0 1 -6.98113 0 4
101 1 10.677 5.36214 1.76068 6.08426 4.05352 2.48244 1 -7.3511 0.0371039 4
102 1 12.48 5.34857 0 0 0 0 1 -3.31921 0 2
103 1 11.5886 4.45714 0.891429 0 0 0 1 -7.02475 0 4
104 1 11.5942 6.22286 2.65381 -2.23447 -1.33755 3.2832 1 -7.35123 0.0109306 4
105 1 8.84728 7.11171 1.7973 -0.835778 3.53447 -3.07232 1 -7.32989 0.0140856 4
106 1 9.7969 7.98583 2.67123 -5.56315 -1.0461 -1.03608 1 -7.32139 0.0206125 4
107 1 10.6971 7.13143 0 0 0 0 1 -3.3374 0 2
108 1 12.4739 7.13827 1.73729 -0.896177 8.76268 -4.31319 1 -7.36425 0.059872 4
109 1 11.5886 8.02286 0.891429 0 0 0 1 -7.03116 0 4
110 1 8.93992 5.3423 3.59855 -2.23824 0.771527 -4.81727 1 -7.37044 0.0179328 4
111 1 12.5038 5.34313 3.54687 7.38114 -6.87374 -2.76334 1 -7.32994 0.068072 4
112 1 10.6955 7.08293 3.56049 -1.25805 -4.70122 -2.64613 1 -7.33245 0.0190999 4
113 1 13.3956 4.4572 2.69577 -6.27227 12.414 -1.41806 1 -7.29245 0.121659 4
114 1 13.3714 6.24 0.891429 0 0 0 1 -7.0239 0 4
115 1 14.2909 5.33683 1.75406 8.96716 -7.39832 5.5779 1 -7.35111 0.103483 4
116 1 16.0457 5.34857 0 0 0 0 1 -3.34024 0 2
117 1 15.1543 4.45714 0.891429 0 0 0 1 -7.04161 0 4
118 1 15.1878 6.19338 2.7025 -4.97981 -4.95685 1.82549 1 -7.30301 0.0328027 4
119 1 16.9263 4.44139 2.69335 -0.903766 -1.24236 0.577284 1 -7.34257 0.0016765 4
120 1 16.9371 6.24 0.891429 0 0 0 1 -7.02362 0 4
121 1 13.3729 8.01937 2.61419 0.446854 -5.21365 -3.34859 1 -7.27328 0.0240225 4
122 1 14.2629 7.13143 0 0 0 0 1 -3.32271 0 2
123 1 16.0771 7.14851 1.75193 2.7212 -4.50528 -4.58589 1 -7.32701 0.0303326 4
124 1 15.1543 8.02286 0.891429 0 0 0 1 -7.03109 0 4
125 1 16.932 7.99656 2.61902 4.99307 0.459453 2.38335 1 -7.2789 0.0191845 4
126 1 16.0544 5.34068 3.57745 12.6457 0.83203 -7.78764 1 -7.37833 0.137714 4
127 1 14.3126 7.08376 3.56721 0.43131 -1.22673 -5.02861 1 -7.25947 0.0167917 4
82 1 21.3804 7.16427 3.60731 6.33832 -0.327058 -2.58408 1 -7.36934 0.0292284 4
129 1 17.8197 5.36369 1.78537 0.597178 3.69604 -0.544797 1 -7.34398 0.00890947 4
130 1 19.6114 5.34857 0 0 0 0 1 -3.33616 0 2
131 1 18.72 4.45714 0.891429 0 0 0 1 -7.01989 0 4
132 1 18.7148 6.23416 2.69623 -2.49041 0.822175 3.85125 1 -7.32848 0.013513 4
133 1 20.5004 4.4809 2.71005 2.80904 3.01922 3.72802 1 -7.30249 0.0192358 4
134 1 20.5029 6.24 0.891429 0 0 0 1 -6.99168 0 4
135 1 17.8286 7.13143 0 0 0 0 1 -3.30947 0 2
136 1 19.5607 7.11711 1.7808 -1.79438 -4.98645 5.44984 1 -7.32669 0.0359671 4
137 1 18.72 8.02286 0.891429 0 0 0 1 -7.02578 0 4
138 1 20.5088 8.00354 2.69045 5.72797 -1.08811 3.71139 1 -7.30918 0.0297321 4
139 1 19.6296 5.38054 3.59784 0.323649 2.28076 -7.84698 1 -7.40567 0.0416289 4
140 1 17.8223 7.13984 3.56976 -4.18537 -0.104517 -4.9741 1 -7.34264 0.0263099 4
141 1 1.78286 8.91429 0 0 0 0 1 -3.34024 0 2
142 1 0.89772 9.77011 2.71053 -2.31727 4.41646 0.224955 1 -7.31655 0.0155143 4
143 1 2.67429 9.80572 0.891429 0 0 0 1 -7.0579 0 4
144 1 3.54667 8.92217 1.76241 3.34891 -4.36435 3.02049 1 -7.37114 0.024515 4
145 1 0 10.6971 0 0 0 0 1 -3.33342 0 2
146 1 1.80075 10.6944 1.75852 4.21984 -0.690327 -6.75136 1 -7.27675 0.0397509 4
147 1 1.78286 12.48 0 0 0 0 1 -3.31361 0 2
148 1 0.891429 11.5886 0.891429 0 0 0 1 -7.03123 0 4
149 1 2.70643 11.5899 2.70235 13.2146 0.47407 -1.03965 1 -7.34983 0.109505 4
150 1 3.56572 10.6971 0 0 0 0 1 -3.32106 0 2
151 1 3.53257 12.501 1.79285 0.772453 0.793525 0.121775 1 -7.27538 0.000772552 4
152 1 1.8071 8.90544 3.5836 -11.9212 -4.49887 -3.92855 1 -7.38815 0.11066 4
153 1 1.75207 12.48 3.53762 2.42374 0.447058 -6.83835 1 -7.28046 0.0328874 4
154 1 3.58039 10.69 3.60188 2.65018 0.0406785 9.71364 1 -7.39798 0.0631016 4
205 1 0.021523 8.88733 1.77539 7.79864 -5.71945 -1.6322 1 -7.32016 0.0598743 4
204 1 0.0274687 12.5029 1.75508 12.8013 -1.76385 -1.01066 1 -7.36069 0.104571 4
155 1 5.34857 8.91429 0 0 0 0 1 -3.33637 0 2
156 1 4.44373 9.77477 2.70962 1.33007 -2.20821 -1.06726 1 -7.31691 0.00484517 4
157 1 6.24 9.80572 0.891429 0 0 0 1 -7.01897 0 4
158 1 7.15037 8.93326 1.80122 4.20988 2.90766 6.27917 1 -7.35119 0.0408347 4
159 1 8.06853 9.82306 2.68911 5.36797 3.46362 -2.75 1 -7.25127 0.0301094 4
160 1 5.36441 10.6579 1.79581 -0.55731 1.53172 -5.4891 1 -7.29651 0.0204075 4
161 1 5.34857 12.48 0 0 0 0 1 -3.35426 0 2
162 1 4.45714 11.5886 0.891429 0 0 0 1 -6.94691 0 4
163 1 6.26398 11.5974 2.65442 2.51596 -1.70039 -4.35153 1 -7.28264 0.0175258 4
164 1 7.13143 10.6971 0 0 0 0 1 -3.35168 0 2
165 1 7.15609 12.4984 1.79174 4.68165 3.98744 -3.29694 1 -7.38971 0.0303043 4
166 1 8.02286 11.5886 0.891429 0 0 0 1 -7.04451 0 4
167 1 5.40314 8.89384 3.56749 1.8005 9.06644 0.796948 1 -7.36059 0.0535767 4
168 1 5.31104 12.4685 3.58555 7.98793 -2.58371 -4.70974 1 -7.26289 0.0576767 4
169 1 7.14028 10.7273 3.63505 -5.69695 -2.49446 0.171986 1 -7.26376 0.0240923 4
170 1 8.91429 8.91429 0 0 0 0 1 -3.3331 0 2
171 1 9.80572 9.80572 0.891429 0 0 0 1 -6.95054 0 4
172 1 10.6838 8.87522 1.80007 4.7858 -6.03494 3.26855 1 -7.38432 0.0435747 4
173 1 12.48 8.91429 0 0 0 0 1 -3.332 0 2
174 1 11.5535 9.78954 2.68127 -2.85155 -3.23442 -6.88568 1 -7.40589 0.0410835 4
175 1 8.86916 10.7388 1.78173 -4.07851 -1.94089 0.444696 1 -7.26959 0.0128214 4
176 1 8.91429 12.48 0 0 0 0 1 -3.34221 0 2
177 1 9.78658 11.6048 2.73749 -6.12381 0.980363 1.01346 1 -7.21965 0.0245792 4
178 1 10.6971 10.6971 0 0 0 0 1 -3.33169 0 2
179 1 10.6904 12.5116 1.76513 -2.68768 1.85966 -3.12249 1 -7.3082 0.0127173 4
180 1 12.448 10.6867 1.77671 -2.44494 2.71748 2.03146 1 -7.39129 0.0108858 4
181 1 12.48 12.48 0 0 0 0 1 -3.32573 0 2
182 1 11.5886 11.5886 0.891429 0 0 0 1 -7.04033 0 4
183 1 8.93721 8.89796 3.61798 -2.47429 4.30527 -6.45307 1 -7.32981 0.0412666 4
184 1 12.4515 8.92118 3.54343 -5.88112 -5.20444 -9.66676 1 -7.33629 0.0965508 4
185 1 8.87223 12.4962 3.6046 -1.4234 -2.82639 6.78885 1 -7.33595 0.03492 4
186 1 10.6876 10.6439 3.58985 -3.51734 6.32031 2.67098 1 -7.40558 0.0370045 4
187 1 12.4813 12.4415 3.56529 6.37058 -8.28854 1.84362 1 -7.2959 0.070137 4
188 1 13.3714 9.80572 0.891429 0 0 0 1 -6.99023 0 4
189 1 14.2652 8.92122 1.76991 -2.35714 -9.01477 3.38239 1 -7.37372 0.0611613 4
190 1 16.0457 8.91429 0 0 0 0 1 -3.32985 0 2
191 1 15.1729 9.85641 2.65189 4.23018 -3.36177 3.54677 1 -7.272 0.0260022 4
192 1 16.9371 9.80572 0.891429 0 0 0 1 -7.01213 0 4
193 1 13.3598 11.5306 2.66007 4.60421 -0.635179 0.0700381 1 -7.29675 0.0134488 4
194 1 14.2629 10.6971 0 0 0 0 1 -3.34209 0 2
195 1 14.2326 12.4699 1.76769 4.17743 3.78414 10.3381 1 -7.34875 0.0862974 4
196 1 16.0869 10.7554 1.77152 -5.5796 0.720846 -2.89725 1 -7.36293 0.0249254 4
197 1 16.0457 12.48 0 0 0 0 1 -3.32749 0 2
198 1 15.1543 11.5886 0.891429 0 0 0 1 -6.98441 0 4
199 1 16.9541 11.617 2.66687 -1.42496 2.83735 0.420905 1 -7.35054 0.006385 4
200 1 16.0659 8.93936 3.58878 1.37362 3.40277 5.56688 1 -7.24873 0.0276705 4
201 1 14.2968 10.6676 3.5958 -3.22354 3.9102 6.03396 1 -7.30475 0.0386461 4
202 1 16.0291 12.4971 3.52507 -5.86242 6.83111 1.49484 1 -7.30581 0.0518272 4
203 1 21.3724 10.6717 3.54197 0.425875 0.185551 -2.67959 1 -7.33895 0.00460348 4
206 1 17.828 8.92839 1.7456 -4.82681 -1.51135 7.83224 1 -7.33329 0.0541052 4
207 1 19.6114 8.91429 0 0 0 0 1 -3.32406 0 2
208 1 18.7302 9.826 2.63311 9.5917 6.58562 -6.02564 1 -7.33201 0.106858 4
209 1 20.5029 9.80572 0.891429 0 0 0 1 -7.00173 0 4
210 1 17.8286 10.6971 0 0 0 0 1 -3.30946 0 2
211 1 17.8724 12.5191 1.74703 -3.46538 -5.91482 5.97005 1 -7.32114 0.0514344 4
212 1 19.5889 10.6994 1.74358 -2.22523 2.86885 7.58025 1 -7.38648 0.0439696 4
213 1 19.6114 12.48 0 0 0 0 1 -3.33224 0 2
214 1 18.72 11.5886 0.891429 0 0 0 1 -7.03444 0 4
215 1 20.4948 11.5737 2.60817 5.16908 -0.0792746 -1.65174 1 -7.31191 0.0183329 4
216 1 19.6473 8.93763 3.52126 -1.32389 4.80587 1.96625 1 -7.32925 0.0178731 4
217 1 17.791 10.7455 3.53678 2.22682 -1.90298 2.94018 1 -7.33943 0.0107211 4
218 1 19.6484 12.4943 3.53834 2.99245 0.284062 -5.49047 1 -7.29354 0.0243871 4
219 1 0.878452 13.3735 2.65405 2.92526 -1.74281 0.883566 1 -7.38729 0.00770266 4
220 1 2.67429 13.3714 0.891429 0 0 0 1 -7.04705 0 4
221 1 0 14.2629 0 0 0 0 1 -3.29172 0 2
222 1 1.78312 14.256 1.76239 4.47322 -4.05146 -1.2974 1 -7.36265 0.0237189 4
223 1 1.78286 16.0457 0 0 0 0 1 -3.32642 0 2
224 1 0.891429 15.1543 0.891429 0 0 0 1 -7.04023 0 4
225 1 0.872674 16.9402 2.67313 2.56405 5.90982 -3.54231 1 -7.36317 0.033641 4
226 1 2.66448 15.1491 2.67234 -1.04966 5.29975 -7.04198 1 -7.36518 0.0490339 4
227 1 2.67429 16.9371 0.891429 0 0 0 1 -7.00397 0 4
228 1 3.56572 14.2629 0 0 0 0 1 -3.34768 0 2
229 1 3.5859 16.0473 1.78019 4.01948 2.61905 8.70378 1 -7.36207 0.0614779 4
230 1 1.78402 16.0743 3.55205 -3.25875 7.48363 0.794289 1 -7.38454 0.0418613 4
231 1 3.53044 14.3156 3.56501 1.60558 5.66694 -2.81493 1 -7.32799 0.0265253 4
233 1 0.00165081 16.0259 1.74474 5.61077 3.34795 0.886365 1 -7.33641 0.0270601 4
232 1 0.0132253 14.3011 3.53911 1.02652 1.31777 3.08482 1 -7.35339 0.00765982 4
234 1 4.47673 13.4306 2.69929 0.896019 -4.85919 -4.32782 1 -7.26659 0.0268543 4
235 1 6.24 13.3714 0.891429 0 0 0 1 -7.04754 0 4
236 1 8.03068 13.3786 2.6924 8.46121 -2.44738 -4.45095 1 -7.38474 0.0606198 4
237 1 5.39517 14.256 1.77604 -6.40757 -2.36616 4.20292 1 -7.37027 0.0400346 4
238 1 5.34857 16.0457 0 0 0 0 1 -3.32067 0 2
239 1 4.45714 15.1543 0.891429 0 0 0 1 -6.98751 0 4
240 1 4.46373 16.9157 2.65832 -3.08605 -0.34561 6.78641 1 -7.31729 0.0346682 4
241 1 6.24315 15.1781 2.67471 0.213254 0.468974 -9.75748 1 -7.29115 0.0594254 4
242 1 6.24 16.9371 0.891429 0 0 0 1 -6.98846 0 4
243 1 7.13143 14.2629 0 0 0 0 1 -3.34156 0 2
244 1 7.16505 16.0617 1.78069 -3.33229 1.47376 -4.0419 1 -7.33987 0.018432 4
245 1 8.02286 15.1543 0.891429 0 0 0 1 -7.04089 0 4
246 1 8.03722 16.9636 2.64818 -5.5929 0.0201613 -0.904134 1 -7.37039 0.0199789 4
247 1 5.3537 16.0803 3.56921 -11.0479 -7.81616 3.57768 1 -7.40683 0.121963 4
248 1 7.16049 14.2611 3.61399 1.98766 2.28289 -4.95954 1 -7.26464 0.0210128 4
249 1 9.80572 13.3714 0.891429 0 0 0 1 -7.00716 0 4
250 1 11.5724 13.3842 2.67309 0.248117 6.03634 -6.77548 1 -7.30298 0.0512917 4
251 1 8.90641 14.3061 1.79006 6.99771 3.2251 4.10129 1 -7.3291 0.0474225 4
252 1 8.91429 16.0457 0 0 0 0 1 -3.32474 0 2
253 1 9.79855 15.1671 2.6924 9.53018 3.97745 -7.06578 1 -7.32931 0.097453 4
254 1 9.80572 16.9371 0.891429 0 0 0 1 -7.02824 0 4
255 1 10.6971 14.2629 0 0 0 0 1 -3.32831 0 2
256 1 10.6919 16.06 1.78142 -9.40072 -0.691429 -2.14305 1 -7.3922 0.0581622 4
257 1 12.4695 14.3012 1.77241 -0.125521 1.38086 5.47583 1 -7.36554 0.0198599 4
258 1 12.48 16.0457 0 0 0 0 1 -3.32208 0 2
259 1 11.5886 15.1543 0.891429 0 0 0 1 -7.04423 0 4
260 1 11.5361 16.9197 2.65539 5.27541 2.16421 -1.17897 1 -7.26708 0.0211026 4
261 1 8.8859 16.0395 3.57016 14.1284 5.3727 10.5721 1 -7.33375 0.211778 4
262 1 10.6727 14.2294 3.60743 11.7134 4.44803 -2.05439 1 -7.36134 0.100341 4
263 1 12.5301 16.022 3.55007 1.91529 -5.66247 6.25318 1 -7.2673 0.0465787 4
264 1 13.3714 13.3714 0.891429 0 0 0 1 -7.00633 0 4
265 1 15.1563 13.3646 2.65788 4.83934 -4.73486 -6.23797 1 -7.36596 0.0527509 4
266 1 16.9371 13.3714 0.891429 0 0 0 1 -7.0173 0 4
267 1 13.3654 15.108 2.64327 -7.4591 3.41636 3.96625 1 -7.34496 0.0516868 4
268 1 13.3714 16.9371 0.891429 0 0 0 1 -7.03728 0 4
269 1 14.2629 14.2629 0 0 0 0 1 -3.32514 0 2
270 1 14.2694 16.0294 1.744 -6.58993 -0.471916 4.91282 1 -7.29586 0.0421916 4
271 1 16.0463 14.2619 1.77489 6.47409 3.37066 -3.38574 1 -7.38463 0.0402949 4
272 1 16.0457 16.0457 0 0 0 0 1 -3.33864 0 2
273 1 15.1543 15.1543 0.891429 0 0 0 1 -7.02688 0 4
274 1 15.1499 16.9399 2.71133 1.61797 2.3303 -8.76244 1 -7.23464 0.0527994 4
275 1 16.9027 15.1576 2.67763 6.41564 -8.5318 -5.13732 1 -7.4015 0.0873539 4
276 1 16.9371 16.9371 0.891429 0 0 0 1 -7.04655 0 4
277 1 14.2822 14.2417 3.53368 -3.25685 3.95731 7.8747 1 -7.36128 0.0549467 4
278 1 16.0474 16.0182 3.56011 5.44966 -2.92626 1.61141 1 -7.34099 0.0254313 4
279 1 18.754 13.429 2.65195 0.38068 1.99511 5.97435 1 -7.32992 0.0247839 4
280 1 20.5029 13.3714 0.891429 0 0 0 1 -6.98953 0 4
281 1 17.8286 14.2629 0 0 0 0 1 -3.31983 0 2
282 1 17.7939 16.059 1.77846 6.4824 6.64754 3.22445 1 -7.3513 0.0601316 4
283 1 19.6457 14.3157 1.7771 -5.2095 4.45452 1.24097 1 -7.3456 0.0302011 4
284 1 19.6114 16.0457 0 0 0 0 1 -3.30236 0 2
285 1 18.72 15.1543 0.891429 0 0 0 1 -6.99423 0 4
286 1 18.7047 16.9624 2.63847 2.45397 -9.41915 -1.36072 1 -7.35909 0.0601225 4
287 1 20.5515 15.1875 2.63825 -6.78691 -8.22228 -3.28871 1 -7.29252 0.0774819 4
288 1 20.5029 16.9371 0.891429 0 0 0 1 -7.03808 0 4
289 1 17.8142 14.265 3.54081 2.51307 -2.33732 -1.82177 1 -7.33166 0.00939704 4
290 1 19.5755 16.1042 3.55034 1.2123 1.15619 -1.51489 1 -7.27767 0.0031752 4
291 1 3.6042 21.4055 3.64578 -4.41269 8.01537 -4.26526 1 -7.32062 0.0634318 4
293 1 0 17.8286 0 0 0 0 1 -3.32919 0 2
294 1 1.75191 17.8243 1.77787 -1.0328 5.16645 -4.70753 1 -7.37569 0.0310713 4
295 1 1.78286 19.6114 0 0 0 0 1 -3.33984 0 2
296 1 0.891429 18.72 0.891429 0 0 0 1 -7.01095 0 4
297 1 0.881654 20.5393 2.72346 -1.043 5.86937 2.48348 1 -7.25124 0.0259583 4
298 1 2.65028 18.7232 2.64681 -7.2647 -2.67269 -1.24979 1 -7.40955 0.0382674 4
299 1 2.67429 20.5029 0.891429 0 0 0 1 -7.04011 0 4
300 1 3.56572 17.8286 0 0 0 0 1 -3.31716 0 2
301 1 3.51312 19.6198 1.76958 0.232294 7.76294 9.44302 1 -7.36291 0.0930451 4
302 1 1.80429 19.6098 3.54476 0.0313238 -0.55125 -5.05102 1 -7.30979 0.0160696 4
303 1 3.51642 17.8536 3.56236 -0.0245236 3.57829 0.232106 1 -7.33296 0.00800357 4
27 1 5.31237 21.3513 1.79338 1.19989 -2.36271 3.25613 1 -7.32108 0.01097 4
306 1 7.13265 21.3848 3.58946 3.62162 6.51697 -0.442208 1 -7.24772 0.0347205 4
307 1 5.32556 17.8397 1.76524 -5.17283 6.96714 1.25259 1 -7.29193 0.0478448 4
308 1 5.34857 19.6114 0 0 0 0 1 -3.33176 0 2
309 1 4.45714 18.72 0.891429 0 0 0 1 -7.00898 0 4
310 1 4.42055 20.5268 2.68288 3.45847 -6.13926 2.20561 1 -7.35217 0.0339323 4
311 1 6.24694 18.7877 2.6982 4.70052 -3.15741 -3.70744 1 -7.25844 0.0285129 4
312 1 6.24 20.5029 0.891429 0 0 0 1 -7.0104 0 4
313 1 7.13143 17.8286 0 0 0 0 1 -3.32203 0 2
314 1 7.12787 19.6386 1.78282 0.596002 -0.318963 3.8849 1 -7.37156 0.00967836 4
315 1 8.02286 18.72 0.891429 0 0 0 1 -7.00255 0 4
316 1 8.06039 20.5206 2.65033 0.606815 -8.23277 -8.36972 1 -7.25805 0.0860187 4
317 1 5.29978 19.65 3.59158 -1.49099 -2.34159 -1.57324 1 -7.29932 0.00633703 4
318 1 7.12486 17.8367 3.58215 2.11733 3.23474 0.40467 1 -7.35553 0.0094051 4
321 1 12.5107 21.3707 1.78473 -5.37134 -2.03512 3.9973 1 -7.37186 0.0304811 4
322 1 8.91303 17.8206 1.78173 -9.21787 -2.19103 -3.9482 1 -7.40665 0.0655776 4
323 1 8.91429 19.6114 0 0 0 0 1 -3.33401 0 2
324 1 9.79661 18.7162 2.66257 -2.17811 -5.15012 4.6151 1 -7.32405 0.0327191 4
325 1 9.80572 20.5029 0.891429 0 0 0 1 -7.04773 0 4
326 1 10.6971 17.8286 0 0 0 0 1 -3.32595 0 2
327 1 10.6672 19.622 1.75762 -1.35799 -0.101198 -3.15566 1 -7.30728 0.00735245 4
328 1 12.496 17.8215 1.77561 -2.54215 4.19784 -6.13694 1 -7.33629 0.0384325 4
329 1 12.48 19.6114 0 0 0 0 1 -3.337 0 2
330 1 11.5886 18.72 0.891429 0 0 0 1 -6.96251 0 4
331 1 11.6423 20.5027 2.66392 7.81589 -3.50619 -0.693003 1 -7.30671 0.0459734 4
332 1 8.91866 19.653 3.57623 7.20344 -3.0733 -3.50519 1 -7.31001 0.0458237 4
333 1 10.7117 17.8415 3.56029 3.74468 -2.05075 1.78557 1 -7.33229 0.0133302 4
334 1 12.4834 19.5758 3.54872 -2.01884 2.19034 6.43298 1 -7.36682 0.031281 4
335 1 16.0508 21.3831 1.76161 0.0290455 0.103287 2.72137 1 -7.33228 0.00461675 4
337 1 13.3726 18.7317 2.65503 -1.30841 -9.48951 -3.35102 1 -7.37144 0.0641049 4
338 1 13.3714 20.5029 0.891429 0 0 0 1 -7.04499 0 4
339 1 14.2629 17.8286 0 0 0 0 1 -3.33593 0 2
340 1 14.2768 19.6286 1.76578 -3.73433 -2.25892 -3.88411 1 -7.36168 0.021246 4
341 1 16.0888 17.8329 1.76297 -4.58991 -1.99561 0.829426 1 -7.28841 0.0160198 4
342 1 16.0457 19.6114 0 0 0 0 1 -3.30912 0 2
343 1 15.1543 18.72 0.891429 0 0 0 1 -6.99439 0 4
344 1 15.1838 20.4948 2.69248 4.78364 -2.8335 -5.61365 1 -7.3244 0.038855 4
345 1 16.9109 18.7474 2.66814 -1.61436 -4.58539 -2.57148 1 -7.28833 0.0188249 4
346 1 16.9371 20.5029 0.891429 0 0 0 1 -7.00406 0 4
347 1 14.291 17.8622 3.5608 -0.494398 1.29037 3.26079 1 -7.36443 0.00780664 4
348 1 16.062 19.6079 3.59616 -8.24095 -4.49247 -2.12163 1 -7.37475 0.0576347 4
349 1 17.8585 21.3539 3.60908 1.21693 7.40684 -2.11196 1 -7.32108 0.0378451 4
304 1 21.3476 17.8064 3.55644 4.57541 -1.23394 4.88003 1 -7.30904 0.0288007 4
305 1 21.3624 19.6195 1.77369 7.50902 -5.33584 8.26197 1 -7.33974 0.0953038 4
351 1 17.8286 17.8286 0 0 0 0 1 -3.31839 0 2
352 1 17.8355 19.617 1.75811 3.46297 -0.807311 -3.83556 1 -7.38735 0.0170268 4
353 1 19.6105 17.7805 1.77954 -1.40185 5.43227 2.60775 1 -7.35357 0.0238234 4
354 1 19.6114 19.6114 0 0 0 0 1 -3.33402 0 2
355 1 18.72 18.72 0.891429 0 0 0 1 -6.99885 0 4
356 1 18.7086 20.5216 2.64852 -0.94559 1.3535 -9.96624 1 -7.29632 0.0635199 4
357 1 20.5097 18.7234 2.66138 4.21929 -3.86262 -1.81968 1 -7.32751 0.0224281 4
358 1 20.5029 20.5029 0.891429 0 0 0 1 -7.03912 0 4
359 1 17.8136 17.827 3.59171 -2.24519 -2.22588 6.51157 1 -7.28892 0.0326126 4
360 1 19.6206 19.626 3.57903 9.16702 -0.411813 6.01142 1 -7.33987 0.0749034 4
361 1 0.891259 0.886187 4.55068 -1.00283 1.58378 1.41173 1 -7.36458 0.0034277 4
362 1 0.929233 2.68062 6.2922 -10.6081 6.79164 0.235215 1 -7.3711 0.0987871 4
363 1 2.70745 0.904073 6.29844 1.91021 -4.91533 3.25982 1 -7.37817 0.0239235 4
364 1 2.65051 2.65181 4.47149 4.53709 -8.05283 -1.16085 1 -7.29017 0.0540147 4
365 1 3.59777 1.73764 5.39311 -0.19352 2.76472 9.77285 1 -7.26412 0.0642279 4
366 1 1.84023 3.54215 5.4283 0.730524 8.06886 -0.0674926 1 -7.32514 0.040859 4
367 1 1.83019 1.78488 7.2024 4.79087 1.27926 1.81655 1 -7.35109 0.0173587 4
368 1 0.891395 0.907953 8.04483 4.50219 4.68285 -2.35058 1 -7.37643 0.0297047 4
369 1 2.73889 2.70026 8.09324 -2.68364 -9.59951 6.22702 1 -7.311 0.0859746 4
370 1 3.61281 3.6019 7.17563 -2.30021 1.26614 9.66803 1 -7.24654 0.0624697 4
411 1 0.00605708 1.80786 5.41151 -1.88622 -4.43342 -0.881543 1 -7.39128 0.0149321 4
371 1 0.0532212 3.61876 7.14608 0.775573 0.402245 1.82332 1 -7.33049 0.00254437 4
651 1 3.61719 0.0173492 7.14883 -2.35407 1.73835 -3.00251 1 -7.28549 0.0109414 4
710 1 0.0408335 0.0125017 7.18321 1.89478 5.14873 11.7548 1 -7.36389 0.104739 4
372 1 4.50719 0.912445 4.44002 5.71295 -10.3332 -0.401178 1 -7.36731 0.086874 4
373 1 4.50175 2.66323 6.22636 7.61004 -2.33093 3.01105 1 -7.26017 0.0450714 4
374 1 6.28463 0.880481 6.273 -6.17561 -3.18623 -1.66359 1 -7.32514 0.0317796 4
375 1 6.25323 2.66596 4.45124 3.93151 0.0454042 -2.26747 1 -7.40236 0.0128221 4
376 1 7.11913 1.77099 5.3204 2.48427 1.00883 1.25093 1 -7.27481 0.00544883 4
377 1 8.07668 0.902186 4.42351 4.82903 2.06377 6.27344 1 -7.3321 0.0416619 4
378 1 8.05853 2.66582 6.27353 2.22538 -0.139564 -1.001 1 -7.25497 0.00371824 4
379 1 5.34832 3.57634 5.33878 -2.78046 -5.55867 -1.53806 1 -7.34951 0.0255167 4
380 1 5.37044 1.77448 7.16323 6.13339 -3.66759 -1.04145 1 -7.33379 0.0324622 4
381 1 4.46965 0.899787 8.05009 3.20934 -1.28787 7.95011 1 -7.34658 0.0467832 4
382 1 6.21892 2.72403 8.03699 -11.0334 -7.0195 5.65871 1 -7.36316 0.126372 4
383 1 8.05941 0.913536 8.06927 -11.3966 2.57378 -1.39648 1 -7.32524 0.0861792 4
384 1 7.11426 3.58136 7.11881 -1.92021 5.41073 -4.02197 1 -7.3411 0.0305857 4
665 1 7.19314 0.00757501 7.1518 0.132866 -0.845535 2.35836 1 -7.37804 0.00391782 4
385 1 5.35095 -0.00316579 5.35209 4.79363 -6.05921 -11.0133 1 -7.25938 0.11265 4
386 1 9.80963 0.897583 6.29923 -1.41952 0.413083 -7.16763 1 -7.3354 0.0333375 4
387 1 9.80818 2.66502 4.45527 -3.22579 -5.03886 -5.92561 1 -7.3298 0.0441354 4
388 1 10.6706 1.75525 5.39289 2.34905 -1.09661 -3.19087 1 -7.35644 0.0105204 4
389 1 11.5837 0.857246 4.5222 1.4919 -2.80304 -5.94564 1 -7.32682 0.028279 4
390 1 11.5764 2.67413 6.27532 0.32369 3.72923 -1.43276 1 -7.3279 0.00999913 4
391 1 8.96366 3.57383 5.35328 -6.0529 -7.62123 5.42236 1 -7.30429 0.0772572 4
392 1 12.5121 3.57286 5.36669 5.32857 -2.1843 1.91268 1 -7.3791 0.0229197 4
393 1 8.96366 1.80544 7.17854 -3.12247 8.14277 0.424625 1 -7.35842 0.0474506 4
394 1 9.83232 2.71332 8.11283 -0.929275 0.230509 2.68147 1 -7.35897 0.00504599 4
395 1 12.474 1.78549 7.13265 0.506297 5.83126 -4.76088 1 -7.35301 0.0354322 4
396 1 11.5602 0.858414 8.01272 -3.07216 -2.03713 -0.890164 1 -7.27615 0.00895077 4
397 1 10.7195 3.55073 7.17758 6.36028 -3.68637 9.22001 1 -7.3596 0.0865491 4
679 1 8.92124 -0.000205396 5.36183 -0.304067 -5.61958 7.9618 1 -7.28449 0.0591693 4
398 1 13.3636 0.851427 6.2679 -0.302048 5.02747 -1.51393 1 -7.34572 0.0172155 4
399 1 13.3753 2.68928 4.48597 4.13574 -6.4953 -0.960762 1 -7.37862 0.0374803 4
400 1 14.2553 1.75725 5.36593 0.0841458 1.94153 -6.83884 1 -7.28828 0.0314614 4
401 1 15.2168 0.917852 4.49853 4.3667 5.61215 -0.170567 1 -7.34154 0.0314907 4
402 1 15.0917 2.68894 6.29534 6.84603 -3.24726 1.85857 1 -7.26085 0.0378853 4
403 1 16.9216 0.908168 6.30181 -2.79631 -2.90122 -0.806923 1 -7.35224 0.0105112 4
404 1 16.9545 2.71702 4.48217 1.9512 -2.44099 -4.53785 1 -7.34965 0.0188954 4
405 1 16.0379 3.56078 5.39237 3.47418 1.05968 -3.99235 1 -7.37409 0.0181324 4
406 1 13.3563 2.63699 8.07712 3.91272 1.15773 1.30954 1 -7.3343 0.0114306 4
407 1 16.0441 1.76475 7.17785 2.96439 -7.95131 -2.48163 1 -7.26395 0.0486547 4
408 1 15.144 0.88691 8.02806 4.19152 -1.02519 3.38641 1 -7.38917 0.0187274 4
409 1 16.972 2.72637 8.08491 -1.26393 5.74846 -3.35856 1 -7.30601 0.0285832 4
410 1 14.2735 3.58393 7.17923 -1.05683 -0.103603 11.2139 1 -7.31525 0.0789727 4
694 1 16.0958 0.00212686 5.41274 0.493343 -1.72606 -1.66953 1 -7.36049 0.00374077 4
412 1 17.8395 1.82872 5.35714 -4.4006 0.260896 -7.90071 1 -7.31865 0.0509484 4
413 1 18.7335 0.904125 4.468 5.78907 0.747343 0.017426 1 -7.2576 0.0212074 4
414 1 18.7426 2.6908 6.29646 -0.0591333 -8.75772 4.29098 1 -7.31224 0.0592012 4
415 1 20.5424 0.917373 6.31437 -2.03174 4.64774 0.767564 1 -7.39662 0.0163814 4
416 1 20.5376 2.6946 4.49546 6.98137 2.78121 -7.91294 1 -7.38257 0.0741243 4
417 1 19.6231 3.58782 5.36707 2.36353 -1.49852 7.85691 1 -7.32736 0.0432977 4
418 1 19.648 1.76228 7.19525 1.46642 -4.04661 -2.80346 1 -7.33144 0.0164226 4
419 1 18.7069 0.892021 8.09152 -2.76663 3.86095 -0.775749 1 -7.3962 0.0144172 4
420 1 20.5333 2.72358 8.06857 -2.72642 0.237632 -5.63624 1 -7.29873 0.0244346 4
421 1 17.8718 3.5743 7.19516 6.76744 2.05473 -2.43628 1 -7.38265 0.0348283 4
709 1 17.8115 0.024208 7.18902 19.0521 -9.55105 8.02112 1 -7.29544 0.322754 4
423 1 0.93762 4.4793 4.5038 -1.84814 -5.80791 7.01057 1 -7.24862 0.0537126 4
424 1 0.888561 6.26986 6.29436 0.0511568 -3.30039 -2.19757 1 -7.31729 0.00978733 4
425 1 2.72251 4.48465 6.26187 -4.5973 -7.43612 8.54946 1 -7.35556 0.0930679 4
426 1 2.69607 6.22399 4.4997 4.22862 -3.57166 -7.82357 1 -7.29003 0.0571675 4
427 1 3.582 5.37015 5.37984 1.0753 1.01169 -0.139427 1 -7.46145 0.00136886 4
428 1 1.76741 7.14894 5.38816 0.0888415 5.12078 10.3519 1 -7.28449 0.0830271 4
429 1 0.910424 8.0357 4.44267 -2.10579 -3.66346 1.36354 1 -7.30433 0.0122708 4
430 1 2.6952 8.05044 6.27331 -7.5848 -6.44747 4.2913 1 -7.23521 0.073144 4
431 1 1.79923 5.37223 7.1932 -2.35807 -3.05622 -0.712211 1 -7.26199 0.00959045 4