ITEM: TIMESTEP
49125425
ITEM: NUMBER OF ATOMS
3060
ITEM: BOX BOUNDS pp pp mm
0.0000000000000000e+00 2.1394294200000001e+01
0.0000000000000000e+00 2.1394294200000001e+01
-5.3491084073550004e-03 5.3485735499999997e+01
ITEM: ATOMS id type x y z vx vy vz c_clusts c_atom_pe c_atom_ke c_atom_coord
1 1 0 0 0 0 0 0 1 -3.34081 0 2
2 1 1.78286 1.78286 0 0 0 0 1 -3.34844 0 2
3 1 0.891429 0.891429 0.891429 0 0 0 1 -7.01997 0 4
4 1 0.92752 2.65887 2.69391 1.80673 7.79568 -2.13087 1 -7.35588 0.0426844 4
5 1 2.72324 0.923009 2.74559 4.93606 4.32261 -4.57673 1 -7.26204 0.0398329 4
6 1 2.67429 2.67429 0.891429 0 0 0 1 -6.9898 0 4
7 1 3.56572 0 0 0 0 0 1 -3.3419 0 2
8 1 3.60432 1.82703 1.80868 -0.829488 1.01693 6.741 1 -7.30246 0.0293557 4
9 1 0 3.56572 0 0 0 0 1 -3.34628 0 2
10 1 1.80496 3.61177 1.76682 3.66959 -0.572585 2.18908 1 -7.28349 0.0115683 4
11 1 3.56572 3.56572 0 0 0 0 1 -3.31932 0 2
12 1 1.76178 1.77633 3.58929 1.41114 2.51577 -6.67948 1 -7.35031 0.0329487 4
13 1 3.54343 3.52625 3.56889 4.68964 0.143203 -0.839252 1 -7.247 0.01414 4
292 1 1.79587 0.00968006 1.77892 5.33631 -0.933388 -3.27153 1 -7.26676 0.0249284 4
56 1 0.0280575 3.57116 3.59347 -9.65798 3.13074 -1.74281 1 -7.33791 0.0660491 4
55 1 0.0253353 1.79486 1.7815 3.98939 1.44199 -1.28006 1 -7.33047 0.0122202 4
291 1 3.59738 0.0219626 3.63783 -5.58687 7.81869 -7.42778 1 -7.33221 0.0918184 4
14 1 5.34857 1.78286 0 0 0 0 1 -3.33351 0 2
15 1 4.45714 0.891429 0.891429 0 0 0 1 -6.96953 0 4
16 1 4.48951 2.75148 2.64351 2.97079 1.7334 4.41627 1 -7.28226 0.0195029 4
17 1 6.27056 0.898595 2.62057 6.49024 -4.11271 -2.16305 1 -7.20745 0.0396588 4
18 1 6.24 2.67429 0.891429 0 0 0 1 -7.0386 0 4
19 1 7.13143 0 0 0 0 0 1 -3.35153 0 2
20 1 7.15501 1.7666 1.74996 -4.38882 -1.50078 2.95033 1 -7.39946 0.0188088 4
21 1 8.02286 0.891429 0.891429 0 0 0 1 -7.01553 0 4
22 1 8.06252 2.66341 2.65099 -6.87225 -9.55716 1.64847 1 -7.34788 0.0879392 4
23 1 5.36782 3.59005 1.74804 0.30097 2.36118 -1.34092 1 -7.38848 0.00464566 4
24 1 7.13143 3.56572 0 0 0 0 1 -3.29979 0 2
25 1 5.34817 1.80919 3.58213 -1.55388 -6.3049 3.44654 1 -7.2844 0.033639 4
26 1 7.12581 3.54732 3.57649 -5.14473 -1.38099 -6.59037 1 -7.30712 0.0446954 4
28 1 8.91429 1.78286 0 0 0 0 1 -3.30789 0 2
29 1 9.81797 0.910971 2.66796 -3.35992 -0.69514 3.74828 1 -7.36536 0.0160722 4
30 1 9.80572 2.67429 0.891429 0 0 0 1 -7.0014 0 4
31 1 10.6971 0 0 0 0 0 1 -3.32521 0 2
32 1 10.728 1.79862 1.76375 3.6027 -4.73814 2.02179 1 -7.34397 0.0245964 4
33 1 12.48 1.78286 0 0 0 0 1 -3.33832 0 2
34 1 11.5886 0.891429 0.891429 0 0 0 1 -7.00417 0 4
35 1 11.6157 2.64857 2.69644 -7.07051 -2.62504 -3.11686 1 -7.30943 0.0414522 4
36 1 8.88197 3.57533 1.76774 -3.36061 2.0526 -0.869352 1 -7.35785 0.0101223 4
37 1 10.6971 3.56572 0 0 0 0 1 -3.31843 0 2
38 1 12.4895 3.56039 1.77609 -1.39587 -4.64007 -8.11635 1 -7.30553 0.0556162 4
39 1 8.93837 1.76459 3.54289 1.93415 -2.46867 -5.96442 1 -7.44561 0.0282641 4
40 1 12.5133 1.74062 3.62012 -8.8003 5.86459 3.20422 1 -7.32616 0.0760018 4
41 1 10.7194 3.56668 3.55305 -6.887 -3.19786 0.885178 1 -7.34468 0.036375 4
320 1 8.96034 0.0186587 1.73917 -0.533104 -8.0274 0.671086 1 -7.36244 0.0405658 4
319 1 10.7093 0.0286991 3.55859 4.72851 1.89091 2.28472 1 -7.30083 0.0193912 4
42 1 13.3772 0.917483 2.69852 1.29785 -2.97665 -5.18157 1 -7.32857 0.0232747 4
43 1 13.3714 2.67429 0.891429 0 0 0 1 -7.00002 0 4
44 1 14.2629 0 0 0 0 0 1 -3.34014 0 2
45 1 14.2963 1.82299 1.80612 -1.7015 5.47921 0.364058 1 -7.34575 0.0205708 4
46 1 16.0457 1.78286 0 0 0 0 1 -3.31384 0 2
47 1 15.1543 0.891429 0.891429 0 0 0 1 -7.0196 0 4
48 1 15.1563 2.69644 2.65572 0.992405 3.31813 -2.00114 1 -7.30203 0.00995846 4
49 1 16.9796 0.895551 2.66763 -6.6715 4.02149 -0.926039 1 -7.29016 0.0383034 4
50 1 16.9371 2.67429 0.891429 0 0 0 1 -7.01742 0 4
51 1 14.2629 3.56572 0 0 0 0 1 -3.32461 0 2
52 1 16.0342 3.56459 1.76982 -6.86268 5.46776 -1.92617 1 -7.37879 0.0502317 4
53 1 16.1284 1.80455 3.58364 -2.76644 5.11812 0.395463 1 -7.27932 0.0211655 4
54 1 14.2387 3.52766 3.59943 -2.43989 0.780656 -0.502933 1 -7.3119 0.00424211 4
336 1 14.3034 0.0488126 3.59665 -0.31337 -1.47404 3.58473 1 -7.25742 0.00941188 4
350 1 21.393 0.015893 3.65419 3.23847 -1.41627 -8.4538 1 -7.3723 0.052259 4
57 1 17.8286 0 0 0 0 0 1 -3.33152 0 2
58 1 17.8408 1.76642 1.7826 -1.4728 -1.88164 -1.44336 1 -7.38445 0.00485057 4
59 1 19.6114 1.78286 0 0 0 0 1 -3.32663 0 2
60 1 18.72 0.891429 0.891429 0 0 0 1 -7.03878 0 4
61 1 18.6847 2.65611 2.6662 -9.92507 3.85045 0.57249 1 -7.349 0.0707454 4
62 1 20.5188 0.880266 2.7142 -2.7779 1.26365 -5.01042 1 -7.30602 0.0214226 4
63 1 20.5029 2.67429 0.891429 0 0 0 1 -7.01027 0 4
64 1 17.8286 3.56572 0 0 0 0 1 -3.33261 0 2
65 1 19.5758 3.57941 1.77799 -2.15731 1.16148 -1.61991 1 -7.30527 0.00536975 4
66 1 19.6357 1.79792 3.56605 2.74994 6.82867 -4.42713 1 -7.32252 0.0459303 4
67 1 17.7832 3.58617 3.55014 2.0229 1.38499 -1.37597 1 -7.33945 0.00491941 4
68 1 19.6238 0.0193087 1.76133 -2.20862 2.27498 -2.1201 1 -7.3588 0.00905528 4
69 1 1.78286 5.34857 0 0 0 0 1 -3.32093 0 2
70 1 0.891429 4.45714 0.891429 0 0 0 1 -7.01273 0 4
71 1 0.922516 6.31096 2.72604 -4.71197 -5.45134 -10.5743 1 -7.33087 0.101914 4
72 1 2.67723 4.54592 2.66666 -3.99035 -3.51718 -3.87625 1 -7.24115 0.0269627 4
73 1 2.67429 6.24 0.891429 0 0 0 1 -7.00173 0 4
74 1 3.60218 5.37165 1.76772 -8.04418 -3.59196 3.23267 1 -7.33798 0.0548116 4
75 1 0 7.13143 0 0 0 0 1 -3.33938 0 2
76 1 1.77862 7.12438 1.80806 1.84554 1.33342 3.21379 1 -7.33688 0.00965536 4
77 1 0.891429 8.02286 0.891429 0 0 0 1 -7.02766 0 4
78 1 2.67505 8.0116 2.69381 -5.45623 -7.9756 2.98376 1 -7.34814 0.0636639 4
79 1 3.56572 7.13143 0 0 0 0 1 -3.32125 0 2
80 1 1.78511 5.42151 3.57137 -1.32094 -4.02466 0.138874 1 -7.34803 0.0111801 4
81 1 3.56323 7.14832 3.58723 1.71613 -3.22817 -7.63858 1 -7.38186 0.0446367 4
128 1 0.0101472 5.38645 1.79614 0.0937537 -4.86644 -4.43365 1 -7.28675 0.0269811 4
83 1 5.34857 5.34857 0 0 0 0 1 -3.30211 0 2
84 1 4.45714 4.45714 0.891429 0 0 0 1 -7.06448 0 4
85 1 4.45838 6.27163 2.69846 -0.0239331 6.88284 3.20556 1 -7.31013 0.0358826 4
86 1 6.21993 4.43054 2.70792 4.97944 1.68609 1.71642 1 -7.36134 0.0190362 4
87 1 6.24 6.24 0.891429 0 0 0 1 -7.01082 0 4
88 1 7.10375 5.31461 1.78905 -0.12135 -1.10433 5.05518 1 -7.32846 0.0166742 4
89 1 8.02286 4.45714 0.891429 0 0 0 1 -7.03053 0 4
90 1 8.01547 6.21822 2.65692 1.04295 7.77435 -15.6342 1 -7.29551 0.190436 4
91 1 5.36468 7.13545 1.77641 -4.99328 -2.2943 -0.750284 1 -7.34403 0.0191456 4
92 1 4.45714 8.02286 0.891429 0 0 0 1 -7.01096 0 4
93 1 6.31445 8.04528 2.64519 11.1693 -3.76298 5.24525 1 -7.30441 0.103587 4
94 1 7.13143 7.13143 0 0 0 0 1 -3.34131 0 2
95 1 8.02286 8.02286 0.891429 0 0 0 1 -6.99827 0 4
96 1 5.34493 5.32404 3.58686 1.84581 -3.26224 9.07756 1 -7.3504 0.0600338 4
97 1 7.13341 7.11045 3.58548 -2.47907 5.53393 -0.370684 1 -7.3194 0.0229722 4
98 1 8.91429 5.34857 0 0 0 0 1 -3.33443 0 2
99 1 9.79907 4.47622 2.66947 8.93696 -1.63763 -0.985854 1 -7.34265 0.0519869 4
100 1 9.80572 6.24 0.891429 0 0 0 1 -6.98571 0 4
101 1 10.6858 5.36683 1.76469 6.91394 2.83742 3.41064 1 -7.35945 0.0420051 4
102 1 12.48 5.34857 0 0 0 0 1 -3.31823 0 2
103 1 11.5886 4.45714 0.891429 0 0 0 1 -7.01828 0 4
104 1 11.5913 6.22141 2.65812 -2.0011 -0.790985 3.06048 1 -7.33574 0.00871187 4
105 1 8.84847 7.11664 1.79248 2.59594 3.75808 -4.09625 1 -7.34562 0.023429 4
106 1 9.78923 7.98459 2.67059 -5.72492 -0.790836 0.0832748 1 -7.33008 0.0207934 4
107 1 10.6971 7.13143 0 0 0 0 1 -3.33666 0 2
108 1 12.4731 7.14918 1.73287 -0.326417 7.25589 -2.19801 1 -7.34123 0.0358429 4
109 1 11.5886 8.02286 0.891429 0 0 0 1 -7.0383 0 4
110 1 8.93586 5.34367 3.59077 -3.71153 1.2247 -6.68209 1 -7.35527 0.0372993 4
111 1 12.5132 5.33382 3.54375 6.41578 -6.74374 -1.80052 1 -7.34131 0.055945 4
112 1 10.6939 7.0772 3.55663 -1.11745 -3.74256 -2.99945 1 -7.32751 0.0150952 4
113 1 13.3869 4.47309 2.69281 -6.426 10.8902 -2.9581 1 -7.29683 0.104966 4
114 1 13.3714 6.24 0.891429 0 0 0 1 -6.99476 0 4
115 1 14.3021 5.32721 1.76309 7.53841 -6.7288 7.71918 1 -7.35978 0.10064 4
116 1 16.0457 5.34857 0 0 0 0 1 -3.34336 0 2
117 1 15.1543 4.45714 0.891429 0 0 0 1 -7.04857 0 4
118 1 15.1811 6.18804 2.70326 -4.7802 -2.92579 -0.728509 1 -7.30184 0.0198811 4
119 1 16.9249 4.44071 2.69279 -1.12275 0.23356 -1.44709 1 -7.34516 0.00212198 4
120 1 16.9371 6.24 0.891429 0 0 0 1 -7.02282 0 4
121 1 13.3738 8.01239 2.61165 0.817439 -5.09043 -0.410707 1 -7.28781 0.0166495 4
122 1 14.2629 7.13143 0 0 0 0 1 -3.31758 0 2
123 1 16.0771 7.14851 1.75193 2.7212 -4.50528 -4.58589 1 -7.31433 0.0303326 4
124 1 15.1543 8.02286 0.891429 0 0 0 1 -7.03047 0 4
125 1 16.9395 7.99901 2.6241 5.92531 3.13093 5.13263 1 -7.30381 0.0443516 4
126 1 16.0717 5.34032 3.56756 12.6182 -1.36044 -6.74895 1 -7.36109 0.128604 4
127 1 14.3121 7.08343 3.56026 -1.1385 0.686944 -5.18299 1 -7.28077 0.017821 4
82 1 21.3899 7.16329 3.60253 7.64238 -1.19344 -4.40325 1 -7.37978 0.0493079 4
129 1 17.8206 5.36763 1.78503 0.728233 2.09061 0.0236492 1 -7.33218 0.00305083 4
130 1 19.6114 5.34857 0 0 0 0 1 -3.33361 0 2
131 1 18.72 4.45714 0.891429 0 0 0 1 -7.0182 0 4
132 1 18.7112 6.23552 2.70086 -2.81318 1.20617 2.92647 1 -7.33836 0.011162 4
133 1 20.5046 4.48449 2.71441 3.34762 2.28311 2.64364 1 -7.32032 0.0145698 4
134 1 20.5029 6.24 0.891429 0 0 0 1 -6.99327 0 4
135 1 17.8286 7.13143 0 0 0 0 1 -3.30834 0 2
136 1 19.5607 7.11711 1.7808 -1.79438 -4.98645 5.44984 1 -7.31335 0.0359671 4
137 1 18.72 8.02286 0.891429 0 0 0 1 -7.01984 0 4
138 1 20.5162 8.00277 2.69435 5.23008 -0.0326392 2.05866 1 -7.30114 0.0196642 4
139 1 19.6291 5.38263 3.58695 -0.989186 0.822649 -8.08853 1 -7.39853 0.0417521 4
140 1 17.8167 7.13877 3.56298 -4.04615 -1.43004 -4.96028 1 -7.34051 0.0267772 4
141 1 1.78286 8.91429 0 0 0 0 1 -3.34056 0 2
142 1 0.895036 9.77699 2.70929 -1.6473 5.70056 -2.08097 1 -7.31802 0.024611 4
143 1 2.67429 9.80572 0.891429 0 0 0 1 -7.05912 0 4
144 1 3.54667 8.92217 1.76241 3.34891 -4.36435 3.02049 1 -7.36631 0.024515 4
145 1 0 10.6971 0 0 0 0 1 -3.33344 0 2
146 1 1.80597 10.6933 1.75113 3.48972 -0.866618 -4.12447 1 -7.26528 0.0186357 4
147 1 1.78286 12.48 0 0 0 0 1 -3.31207 0 2
148 1 0.891429 11.5886 0.891429 0 0 0 1 -7.02767 0 4
149 1 2.72265 11.5904 2.7003 10.6982 0.134542 -1.97415 1 -7.32459 0.0736751 4
150 1 3.56572 10.6971 0 0 0 0 1 -3.32031 0 2
151 1 3.53572 12.5018 1.79314 3.90607 0.39851 0.267861 1 -7.28909 0.00964011 4
152 1 1.791 8.89966 3.57851 -11.7728 -4.01871 -3.53679 1 -7.39034 0.104106 4
153 1 1.75599 12.4806 3.53003 3.4205 0.432986 -4.39912 1 -7.28493 0.0194443 4
154 1 3.58366 10.6898 3.61484 2.1957 -0.311275 9.32266 1 -7.40257 0.0571574 4
205 1 0.021523 8.88733 1.77539 7.79864 -5.71945 -1.6322 1 -7.30973 0.0598743 4
204 1 0.0274687 12.5029 1.75508 12.8013 -1.76385 -1.01066 1 -7.36863 0.104571 4
155 1 5.34857 8.91429 0 0 0 0 1 -3.33779 0 2
156 1 4.44652 9.77254 2.70737 2.78515 -1.05058 -2.21916 1 -7.31447 0.00858042 4
157 1 6.24 9.80572 0.891429 0 0 0 1 -7.01595 0 4
158 1 7.15659 8.93711 1.80846 5.00255 2.76897 4.37184 1 -7.34012 0.0322452 4
159 1 8.07393 9.82748 2.6862 2.56736 3.07071 -1.52177 1 -7.26128 0.011413 4
160 1 5.36308 10.6614 1.78827 -1.40416 3.54727 -5.62709 1 -7.301 0.0287679 4
161 1 5.34857 12.48 0 0 0 0 1 -3.35207 0 2
162 1 4.45714 11.5886 0.891429 0 0 0 1 -6.95374 0 4
163 1 6.2665 11.5947 2.65015 1.21126 -2.22679 -1.99275 1 -7.28071 0.00647125 4
164 1 7.13143 10.6971 0 0 0 0 1 -3.35032 0 2
165 1 7.1616 12.5034 1.78678 3.46544 3.26164 -4.01794 1 -7.38873 0.0241448 4
166 1 8.02286 11.5886 0.891429 0 0 0 1 -7.04055 0 4
167 1 5.40441 8.90621 3.56854 0.0645648 9.04758 0.733915 1 -7.34214 0.0512888 4
168 1 5.32332 12.466 3.57936 10.0935 -1.13111 -4.42752 1 -7.26861 0.0764094 4
169 1 7.13281 10.7229 3.63333 -5.31 -3.93203 -2.71813 1 -7.26127 0.0317718 4
170 1 8.91429 8.91429 0 0 0 0 1 -3.33064 0 2
171 1 9.80572 9.80572 0.891429 0 0 0 1 -6.93878 0 4
172 1 10.69 8.86817 1.80367 4.28653 -4.36039 1.99649 1 -7.37177 0.0257518 4
173 1 12.48 8.91429 0 0 0 0 1 -3.32895 0 2
174 1 11.55 9.78528 2.67171 -2.27431 -3.00401 -7.16091 1 -7.4055 0.0407535 4
175 1 8.86916 10.7388 1.78173 -4.07851 -1.94089 0.444696 1 -7.28075 0.0128214 4
176 1 8.91429 12.48 0 0 0 0 1 -3.34219 0 2
177 1 9.7784 11.6058 2.73711 -5.93744 0.496507 -1.55056 1 -7.22699 0.0235924 4
178 1 10.6971 10.6971 0 0 0 0 1 -3.3312 0 2
179 1 10.6867 12.5129 1.76219 -2.69072 0.0716115 -1.20558 1 -7.30265 0.0054142 4
180 1 12.4453 10.6898 1.77965 -1.61571 1.85944 2.27918 1 -7.39642 0.0070102 4
181 1 12.48 12.48 0 0 0 0 1 -3.33001 0 2
182 1 11.5886 11.5886 0.891429 0 0 0 1 -7.04015 0 4
183 1 8.93369 8.90395 3.60771 -2.6707 4.53058 -8.6859 1 -7.35305 0.0641744 4
184 1 12.4446 8.91278 3.53098 -4.18544 -7.16999 -8.71192 1 -7.33611 0.0901424 4
185 1 8.87198 12.4921 3.61315 1.02474 -3.16241 5.74131 1 -7.34925 0.0273952 4
186 1 10.6827 10.6538 3.59289 -3.81192 8.2823 1.79597 1 -7.40063 0.0537481 4
187 1 12.4892 12.4307 3.56744 5.38503 -7.60649 1.36275 1 -7.26529 0.0552182 4
188 1 13.3714 9.80572 0.891429 0 0 0 1 -6.98059 0 4
189 1 14.2626 8.90954 1.77436 -1.48433 -8.18629 3.17196 1 -7.36444 0.0493459 4
190 1 16.0457 8.91429 0 0 0 0 1 -3.33352 0 2
191 1 15.1787 9.85013 2.65749 4.16296 -5.88446 4.74548 1 -7.26191 0.0463562 4
192 1 16.9371 9.80572 0.891429 0 0 0 1 -7.0118 0 4
193 1 13.3662 11.5311 2.66095 4.74729 1.37627 1.27169 1 -7.3138 0.016213 4
194 1 14.2629 10.6971 0 0 0 0 1 -3.34885 0 2
195 1 14.2392 12.4747 1.78191 5.49513 3.36427 10.5589 1 -7.36412 0.0952338 4
196 1 16.0869 10.7554 1.77152 -5.5796 0.720846 -2.89725 1 -7.35728 0.0249254 4
197 1 16.0457 12.48 0 0 0 0 1 -3.32777 0 2
198 1 15.1543 11.5886 0.891429 0 0 0 1 -6.97825 0 4
199 1 16.9519 11.6217 2.6666 -1.80513 3.9535 -0.749755 1 -7.349 0.0121067 4
200 1 16.068 8.94317 3.59513 1.69792 2.16379 3.79553 1 -7.25011 0.0136753 4
201 1 14.2908 10.6727 3.60257 -5.55811 3.55375 3.8939 1 -7.31763 0.0365265 4
202 1 16.022 12.5054 3.52847 -4.62552 5.33875 3.50809 1 -7.30285 0.0387176 4
203 1 21.3733 10.6732 3.53863 1.05785 2.0679 -2.27862 1 -7.35738 0.00658985 4
206 1 17.8217 8.92586 1.75702 -4.3941 -2.17401 8.94322 1 -7.33671 0.0647421 4
207 1 19.6114 8.91429 0 0 0 0 1 -3.32849 0 2
208 1 18.7421 9.83446 2.62568 7.85918 5.85388 -4.84618 1 -7.32732 0.0743924 4
209 1 20.5029 9.80572 0.891429 0 0 0 1 -6.99387 0 4
210 1 17.8286 10.6971 0 0 0 0 1 -3.31384 0 2
211 1 17.8668 12.5106 1.75631 -4.77476 -6.57415 7.70063 1 -7.32504 0.0780009 4
212 1 19.587 10.7034 1.75409 -0.477468 3.05571 7.8055 1 -7.38979 0.0438755 4
213 1 19.6114 12.48 0 0 0 0 1 -3.33693 0 2
214 1 18.72 11.5886 0.891429 0 0 0 1 -7.04116 0 4
215 1 20.5025 11.5743 2.60727 6.12823 0.956088 0.332941 1 -7.32473 0.0240133 4
216 1 19.6435 8.94373 3.52453 -4.12138 4.24511 2.82652 1 -7.32655 0.0267618 4
217 1 17.7961 10.742 3.54127 5.19771 -3.28662 3.66388 1 -7.3335 0.0318944 4
218 1 19.6515 12.4948 3.53114 1.53308 0.54149 -5.09732 1 -7.29048 0.0178177 4
219 1 0.882985 13.3715 2.65517 3.7524 -1.26152 0.757564 1 -7.38788 0.0101118 4
220 1 2.67429 13.3714 0.891429 0 0 0 1 -7.05019 0 4
221 1 0 14.2629 0 0 0 0 1 -3.29178 0 2
222 1 1.78312 14.256 1.76239 4.47322 -4.05146 -1.2974 1 -7.36864 0.0237189 4
223 1 1.78286 16.0457 0 0 0 0 1 -3.32887 0 2
224 1 0.891429 15.1543 0.891429 0 0 0 1 -7.03576 0 4
225 1 0.876172 16.9478 2.66784 2.56715 5.27559 -4.20285 1 -7.36918 0.0324197 4
226 1 2.663 15.1574 2.66244 -1.13462 6.85196 -7.50475 1 -7.35877 0.0650797 4
227 1 2.67429 16.9371 0.891429 0 0 0 1 -6.99674 0 4
228 1 3.56572 14.2629 0 0 0 0 1 -3.34857 0 2
229 1 3.59029 16.0503 1.7917 2.42047 1.81699 8.20711 1 -7.35467 0.0476261 4
230 1 1.7795 16.0834 3.55289 -3.3964 5.93202 0.420014 1 -7.36839 0.0291923 4
231 1 3.53405 14.322 3.56207 3.68938 3.73366 -1.57772 1 -7.31858 0.0186983 4
233 1 0.00165081 16.0259 1.74474 5.61077 3.34795 0.886365 1 -7.34089 0.0270601 4
232 1 0.0147854 14.3025 3.54415 1.25764 0.694894 4.34221 1 -7.32589 0.0130207 4
234 1 4.47682 13.4225 2.69293 -0.753183 -6.9767 -5.02274 1 -7.28582 0.0463518 4
235 1 6.24 13.3714 0.891429 0 0 0 1 -7.04324 0 4
236 1 8.04175 13.3759 2.68655 7.8837 -1.59231 -4.15403 1 -7.3765 0.0510042 4
237 1 5.3851 14.2538 1.78211 -8.3989 -0.867156 4.68015 1 -7.37618 0.0580085 4
238 1 5.34857 16.0457 0 0 0 0 1 -3.32451 0 2
239 1 4.45714 15.1543 0.891429 0 0 0 1 -6.98813 0 4
240 1 4.45894 16.917 2.66805 -3.98282 2.23246 7.58136 1 -7.32337 0.0487508 4
241 1 6.24445 15.1783 2.66224 1.63713 -0.313622 -8.61414 1 -7.29159 0.0479156 4
242 1 6.24 16.9371 0.891429 0 0 0 1 -6.97535 0 4
243 1 7.13143 14.2629 0 0 0 0 1 -3.34363 0 2
244 1 7.16505 16.0617 1.78069 -3.33229 1.47376 -4.0419 1 -7.36337 0.018432 4
245 1 8.02286 15.1543 0.891429 0 0 0 1 -7.03664 0 4
246 1 8.02905 16.9627 2.64834 -6.37373 -1.29223 1.15337 1 -7.35723 0.0271531 4
247 1 5.33884 16.069 3.57405 -10.768 -8.70019 3.55469 1 -7.3985 0.127148 4
248 1 7.16169 14.2649 3.60633 -0.187997 3.33789 -6.34019 1 -7.26789 0.031977 4
249 1 9.80572 13.3714 0.891429 0 0 0 1 -6.99791 0 4
250 1 11.5733 13.3918 2.66418 1.11926 5.18219 -6.36134 1 -7.28682 0.0426826 4
251 1 8.91622 14.3087 1.79551 7.48674 0.615044 3.89707 1 -7.33946 0.0445761 4
252 1 8.91429 16.0457 0 0 0 0 1 -3.32267 0 2
253 1 9.81119 15.1721 2.68288 9.15792 3.45895 -6.89575 1 -7.33698 0.0892455 4
254 1 9.80572 16.9371 0.891429 0 0 0 1 -7.03123 0 4
255 1 10.6971 14.2629 0 0 0 0 1 -3.32747 0 2
256 1 10.6919 16.06 1.78142 -9.40072 -0.691429 -2.14305 1 -7.39971 0.0581622 4
257 1 12.4695 14.3012 1.77241 -0.125521 1.38086 5.47583 1 -7.37292 0.0198599 4
258 1 12.48 16.0457 0 0 0 0 1 -3.32208 0 2
259 1 11.5886 15.1543 0.891429 0 0 0 1 -7.03721 0 4
260 1 11.5459 16.9234 2.65463 9.1608 3.228 0.0635161 1 -7.27178 0.0587223 4
261 1 8.90549 16.0479 3.5846 14.6935 6.9507 10.6634 1 -7.32025 0.235227 4
262 1 10.6889 14.2368 3.6029 12.0672 6.37279 -4.66452 1 -7.36059 0.129457 4
263 1 12.5308 16.0148 3.55865 -0.978605 -4.88349 6.39774 1 -7.29034 0.0409166 4
264 1 13.3714 13.3714 0.891429 0 0 0 1 -7.00902 0 4
265 1 15.1623 13.3583 2.64923 3.8691 -4.34981 -6.44477 1 -7.36403 0.046947 4
266 1 16.9371 13.3714 0.891429 0 0 0 1 -7.01087 0 4
267 1 13.3564 15.1143 2.64915 -5.66201 5.82977 4.72255 1 -7.34593 0.0549895 4
268 1 13.3714 16.9371 0.891429 0 0 0 1 -7.03082 0 4
269 1 14.2629 14.2629 0 0 0 0 1 -3.32617 0 2
270 1 14.2694 16.0294 1.744 -6.58993 -0.471916 4.91282 1 -7.30574 0.0421916 4
271 1 16.0545 14.2662 1.77037 5.66113 2.96755 -3.29611 1 -7.3931 0.0321913 4
272 1 16.0457 16.0457 0 0 0 0 1 -3.33555 0 2
273 1 15.1543 15.1543 0.891429 0 0 0 1 -7.03294 0 4
274 1 15.1529 16.9427 2.69761 2.71994 1.88643 -11.4196 1 -7.23853 0.0879881 4
275 1 16.9124 15.146 2.67014 7.94155 -8.4479 -5.87984 1 -7.40912 0.105195 4
276 1 16.9371 16.9371 0.891429 0 0 0 1 -7.05108 0 4
277 1 14.2768 14.2468 3.54488 -4.69462 3.56761 8.56734 1 -7.35369 0.0673257 4
278 1 16.054 16.0157 3.56267 4.39018 -0.878162 2.05967 1 -7.33276 0.0151169 4
279 1 18.7542 13.4305 2.66003 -0.14056 0.252706 5.90998 1 -7.32971 0.021792 4
280 1 20.5029 13.3714 0.891429 0 0 0 1 -6.98749 0 4
281 1 17.8286 14.2629 0 0 0 0 1 -3.32176 0 2
282 1 17.7939 16.059 1.77846 6.4824 6.64754 3.22445 1 -7.3543 0.0601316 4
283 1 19.6381 14.3204 1.77859 -6.0184 2.41804 0.947211 1 -7.3528 0.0267427 4
284 1 19.6114 16.0457 0 0 0 0 1 -3.30391 0 2
285 1 18.72 15.1543 0.891429 0 0 0 1 -6.99397 0 4
286 1 18.7074 16.949 2.63809 1.49387 -10.226 0.801369 1 -7.35604 0.0668769 4
287 1 20.5406 15.1765 2.63487 -9.29827 -8.02192 -1.68187 1 -7.30454 0.0956281 4
288 1 20.5029 16.9371 0.891429 0 0 0 1 -7.02871 0 4
289 1 17.8182 14.2623 3.53887 3.30484 -1.66939 -1.02193 1 -7.33294 0.00918276 4
290 1 19.5784 16.1034 3.5482 3.00441 -2.36569 -1.61128 1 -7.2801 0.0107177 4
293 1 0 17.8286 0 0 0 0 1 -3.33258 0 2
294 1 1.75191 17.8243 1.77787 -1.0328 5.16645 -4.70753 1 -7.38111 0.0310713 4
295 1 1.78286 19.6114 0 0 0 0 1 -3.34153 0 2
296 1 0.891429 18.72 0.891429 0 0 0 1 -7.01344 0 4
297 1 0.880504 20.5463 2.72577 -0.605506 4.41059 0.900488 1 -7.26916 0.0128412 4
298 1 2.64048 18.7197 2.6456 -7.13959 -2.52058 -0.558136 1 -7.41558 0.0358757 4
299 1 2.67429 20.5029 0.891429 0 0 0 1 -7.04218 0 4
300 1 3.56572 17.8286 0 0 0 0 1 -3.31905 0 2
301 1 3.51312 19.6198 1.76958 0.232294 7.76294 9.44302 1 -7.35543 0.0930451 4
302 1 1.80327 19.6096 3.53959 -1.55621 0.307865 -2.52475 1 -7.28315 0.00553395 4
303 1 3.51783 17.8572 3.56219 2.07504 1.80399 -0.432604 1 -7.32667 0.00482213 4
27 1 5.31511 21.3501 1.79693 2.84854 0.520317 1.97219 1 -7.31364 0.00763994 4
306 1 7.13841 21.3943 3.58703 4.94161 7.54404 -3.15645 1 -7.25293 0.0568245 4
307 1 5.3198 17.849 1.768 -3.2986 6.72674 2.84014 1 -7.29407 0.0399574 4
308 1 5.34857 19.6114 0 0 0 0 1 -3.33393 0 2
309 1 4.45714 18.72 0.891429 0 0 0 1 -7.0126 0 4
310 1 4.42532 20.5177 2.68621 3.52725 -7.26297 2.70338 1 -7.35924 0.0451262 4
311 1 6.25227 18.7819 2.6928 3.14065 -5.49803 -4.2364 1 -7.27266 0.0361251 4
312 1 6.24 20.5029 0.891429 0 0 0 1 -7.00405 0 4
313 1 7.13143 17.8286 0 0 0 0 1 -3.32168 0 2
314 1 7.1294 19.6379 1.78794 1.657 -0.876858 3.61043 1 -7.38176 0.010301 4
315 1 8.02286 18.72 0.891429 0 0 0 1 -6.99611 0 4
316 1 8.06037 20.5099 2.63973 -0.594047 -7.57524 -7.21708 1 -7.25827 0.068357 4
317 1 5.29892 19.6458 3.58907 0.283335 -3.91441 -2.13727 1 -7.29341 0.0124303 4
318 1 7.12819 17.8419 3.58199 2.74985 4.37327 -0.672081 1 -7.38263 0.0168919 4
321 1 12.5032 21.3695 1.7901 -5.56144 0.200089 3.87121 1 -7.37653 0.0286042 4
322 1 8.91303 17.8206 1.78173 -9.21787 -2.19103 -3.9482 1 -7.39874 0.0655776 4
323 1 8.91429 19.6114 0 0 0 0 1 -3.33364 0 2
324 1 9.79411 18.7101 2.66923 -1.45298 -3.86053 5.19452 1 -7.32415 0.0273854 4
325 1 9.80572 20.5029 0.891429 0 0 0 1 -7.05202 0 4
326 1 10.6971 17.8286 0 0 0 0 1 -3.32595 0 2
327 1 10.6672 19.622 1.75762 -1.35799 -0.101198 -3.15566 1 -7.29624 0.00735245 4
328 1 12.496 17.8215 1.77561 -2.54215 4.19784 -6.13694 1 -7.36035 0.0384325 4
329 1 12.48 19.6114 0 0 0 0 1 -3.33572 0 2
330 1 11.5886 18.72 0.891429 0 0 0 1 -6.96361 0 4
331 1 11.6505 20.4978 2.6634 4.30778 -3.77263 -0.0463716 1 -7.29677 0.0204105 4
332 1 8.92871 19.6476 3.57123 7.56471 -4.91636 -3.88578 1 -7.31132 0.0600608 4
333 1 10.7154 17.838 3.56304 1.67581 -3.15547 2.29152 1 -7.35365 0.0112139 4
334 1 12.4817 19.5797 3.55806 -0.390065 3.59189 7.27021 1 -7.38756 0.0410239 4
335 1 16.0508 21.3831 1.76161 0.0290455 0.103287 2.72137 1 -7.34759 0.00461675 4
337 1 13.3715 18.7184 2.65107 -0.362754 -10.0746 -2.44606 1 -7.35916 0.0669813 4
338 1 13.3714 20.5029 0.891429 0 0 0 1 -7.03973 0 4
339 1 14.2629 17.8286 0 0 0 0 1 -3.33593 0 2
340 1 14.2768 19.6286 1.76578 -3.73433 -2.25892 -3.88411 1 -7.35761 0.021246 4
341 1 16.0888 17.8329 1.76297 -4.58991 -1.99561 0.829426 1 -7.30429 0.0160198 4
342 1 16.0457 19.6114 0 0 0 0 1 -3.30889 0 2
343 1 15.1543 18.72 0.891429 0 0 0 1 -6.98769 0 4
344 1 15.1896 20.492 2.68475 3.72986 -1.3467 -5.7657 1 -7.32117 0.0304794 4
345 1 16.9106 18.7405 2.6651 1.2196 -5.53418 -1.89563 1 -7.28856 0.0222256 4
346 1 16.9371 20.5029 0.891429 0 0 0 1 -7.00163 0 4
347 1 14.2895 17.8629 3.56586 -1.74101 -0.291854 4.13407 1 -7.37631 0.0125772 4
348 1 16.0512 19.6024 3.59308 -7.67728 -3.72043 -2.40217 1 -7.3593 0.0488932 4
349 1 17.8597 21.3652 3.60536 0.53882 9.3194 -3.37339 1 -7.30789 0.0613223 4
304 1 21.3553 17.8061 3.56315 6.81799 0.783388 5.01412 1 -7.30437 0.0449641 4
305 1 21.3738 19.6126 1.78538 9.19706 -4.87708 8.92822 1 -7.34096 0.117069 4
351 1 17.8286 17.8286 0 0 0 0 1 -3.31877 0 2
352 1 17.8397 19.6161 1.75399 2.65755 -0.608886 -2.24031 1 -7.39339 0.00775067 4
353 1 19.6105 17.7805 1.77954 -1.40185 5.43227 2.60775 1 -7.36619 0.0238234 4
354 1 19.6114 19.6114 0 0 0 0 1 -3.33435 0 2
355 1 18.72 18.72 0.891429 0 0 0 1 -7.00277 0 4
356 1 18.7084 20.5224 2.63611 0.66125 -0.103554 -8.31389 1 -7.28147 0.0433014 4
357 1 20.5143 18.7178 2.65951 2.57181 -4.28353 -0.879623 1 -7.32228 0.0160191 4
358 1 20.5029 20.5029 0.891429 0 0 0 1 -7.02792 0 4
359 1 17.8112 17.8251 3.59933 -1.2745 -0.708743 4.72283 1 -7.26994 0.015207 4
360 1 19.6323 19.6251 3.58691 8.05101 -0.89344 5.58719 1 -7.31955 0.0602718 4
361 1 0.890106 0.888761 4.5514 -0.663913 2.19252 -0.367748 1 -7.36069 0.00335061 4
362 1 0.915238 2.69019 6.29287 -9.97627 7.30211 0.748183 1 -7.35418 0.0954842 4
363 1 2.71015 0.896815 6.30247 2.07136 -5.69262 2.706 1 -7.39312 0.0273985 4
364 1 2.65786 2.64092 4.47068 6.29879 -7.93033 -0.0108545 1 -7.28854 0.0638391 4
365 1 3.59725 1.74303 5.40485 -0.524878 5.08031 7.56046 1 -7.26353 0.0518142 4
366 1 1.84029 3.55403 5.4265 -0.672088 9.35961 -2.55694 1 -7.33656 0.0588765 4
367 1 1.83618 1.78709 7.20411 4.02735 1.96638 0.702541 1 -7.35162 0.0128094 4
368 1 0.898597 0.913962 8.04226 6.08561 4.18697 -1.42004 1 -7.36525 0.035218 4
369 1 2.73404 2.68734 8.10115 -4.36891 -9.46841 5.43776 1 -7.32654 0.0860861 4
370 1 3.6097 3.60287 7.18844 -2.28652 0.105405 9.25349 1 -7.2366 0.0565576 4
411 1 0.00432644 1.80178 5.41051 -0.673863 -4.47751 -0.624684 1 -7.40136 0.013004 4
371 1 0.0523624 3.61798 7.14923 -2.13045 -1.53412 2.83614 1 -7.33864 0.00929656 4
651 1 3.61234 0.0188423 7.14561 -4.74114 0.443446 -1.69064 1 -7.29257 0.0158926 4
710 1 0.0426901 0.018807 7.19829 0.819925 4.15527 10.4034 1 -7.34313 0.078531 4
652 1 1.8166 0.00454219 5.42498 5.5898 2.10213 3.89747 1 -7.36172 0.0316536 4
372 1 4.51373 0.897999 4.44146 3.89392 -10.9307 2.52595 1 -7.35967 0.0877769 4
373 1 4.51111 2.66036 6.23195 6.16501 -1.90993 5.271 1 -7.2626 0.0432204 4
374 1 6.2756 0.876295 6.27003 -7.0805 -3.01489 -2.72038 1 -7.33244 0.0414682 4
375 1 6.25809 2.66659 4.44864 3.20983 0.829773 -1.55826 1 -7.39573 0.00835279 4
376 1 7.12421 1.77262 5.32323 5.01001 1.39617 2.93913 1 -7.28111 0.0222131 4
377 1 8.08129 0.9042 4.43328 1.99997 0.887139 8.11534 1 -7.32314 0.0439717 4
378 1 8.06076 2.66626 6.27115 1.00787 0.82035 -2.49774 1 -7.26802 0.00493429 4
379 1 5.3449 3.5683 5.33703 -2.21371 -6.27953 -1.0343 1 -7.34944 0.0282599 4
380 1 5.37866 1.77016 7.16156 5.92041 -2.76408 -1.38474 1 -7.33928 0.0277657 4
381 1 4.4745 0.897743 8.06119 3.95232 -1.75076 8.37466 1 -7.35729 0.0552845 4
382 1 6.2053 2.71365 8.04451 -8.97395 -8.27456 5.40471 1 -7.34798 0.110923 4
383 1 8.04408 0.916652 8.06686 -11.1836 2.02617 -2.1313 1 -7.32973 0.0832315 4
384 1 7.11255 3.58806 7.11438 -0.640721 4.43222 -2.49216 1 -7.32033 0.0163486 4
665 1 7.1919 0.00613485 7.15559 -1.98169 -1.30932 3.18922 1 -7.37506 0.00984214 4
386 1 9.80731 0.897299 6.28917 -2.00043 -0.820926 -7.60276 1 -7.34111 0.0388877 4
387 1 9.80444 2.65827 4.44732 -2.31616 -4.90422 -5.77879 1 -7.32555 0.0390948 4
388 1 10.675 1.75462 5.3881 4.13172 0.15573 -3.9175 1 -7.35587 0.0201928 4
389 1 11.5863 0.854181 4.5128 2.24781 -1.70025 -7.86579 1 -7.33932 0.0434541 4
390 1 11.5775 2.67885 6.27279 1.41732 3.22584 -2.30191 1 -7.3312 0.0110254 4
391 1 8.95436 3.56337 5.36089 -7.65777 -7.80497 5.71653 1 -7.31093 0.0947567 4
392 1 12.5178 3.56959 5.36953 3.11064 -2.64132 2.278 1 -7.36648 0.013595 4
393 1 8.95842 1.81615 7.17959 -4.60743 7.61427 1.09131 1 -7.35971 0.0500409 4
394 1 9.83084 2.71253 8.11438 -1.21561 -1.4075 -0.410618 1 -7.37185 0.00225777 4
395 1 12.4746 1.79202 7.12722 0.383895 3.80174 -3.23409 1 -7.33752 0.015598 4
396 1 11.5565 0.856528 8.01278 -2.34366 -0.677414 0.977221 1 -7.28188 0.00429885 4
397 1 10.7277 3.54659 7.18952 5.71447 -2.4349 8.35123 1 -7.35206 0.0674255 4
398 1 13.3634 0.858792 6.26493 -0.0436066 5.82024 -2.89094 1 -7.35171 0.0262879 4
399 1 13.3809 2.67893 4.48485 4.11388 -8.73959 -0.700106 1 -7.40441 0.0583802 4
400 1 14.2557 1.76093 5.35758 0.541705 3.47628 -5.46598 1 -7.29526 0.0263005 4
401 1 15.2222 0.924752 4.49783 3.56025 4.5435 -0.871691 1 -7.34908 0.0212114 4
402 1 15.1033 2.6837 6.29714 10.1966 -4.46799 0.814856 1 -7.24764 0.0775521 4
403 1 16.9193 0.904203 6.30008 -0.483102 -3.03038 -1.72932 1 -7.32116 0.00772252 4
404 1 16.9567 2.71288 4.47616 1.40362 -3.60416 -4.34621 1 -7.36239 0.0210689 4
405 1 16.0431 3.56194 5.38727 4.18903 0.627416 -3.51015 1 -7.36552 0.0188363 4
406 1 13.3619 2.64015 8.07763 4.37147 3.50254 -0.521959 1 -7.34345 0.0196998 4
407 1 16.0479 1.75589 7.17453 2.60614 -5.11316 -2.37893 1 -7.27667 0.024023 4
408 1 15.15 0.885443 8.03357 4.63138 -1.17877 4.74282 1 -7.37807 0.0282168 4
409 1 16.9697 2.732 8.08022 -2.16591 2.5627 -3.54968 1 -7.27614 0.0148503 4
410 1 14.2708 3.58361 7.1942 -2.75042 -0.42131 10.8348 1 -7.31638 0.0778875 4
694 1 16.0955 -0.000191857 5.4096 -0.875489 -1.69274 -2.92711 1 -7.37129 0.0075935 4
412 1 17.8338 1.82811 5.3478 -3.94398 -1.19183 -5.8577 1 -7.30788 0.031923 4
413 1 18.7419 0.904841 4.46905 6.52025 0.34303 1.50022 1 -7.2542 0.0279357 4
414 1 18.7429 2.67881 6.3017 0.400334 -8.92104 3.39928 1 -7.30588 0.0568277 4
415 1 20.5394 0.922507 6.31481 -2.45813 2.87358 -0.104653 1 -7.39648 0.00890742 4
416 1 20.5461 2.69801 4.4846 5.55407 2.24014 -8.08312 1 -7.37539 0.0629913 4
417 1 19.6266 3.58593 5.37827 2.92341 -1.3138 8.63455 1 -7.30465 0.052799 4
418 1 19.649 1.75835 7.19135 -0.0160349 -1.70685 -2.94343 1 -7.33536 0.00720607 4
419 1 18.7036 0.897101 8.09016 -1.95561 3.62841 -1.21542 1 -7.3962 0.0114944 4
420 1 20.5293 2.72302 8.06045 -3.11115 -1.06354 -6.34842 1 -7.32118 0.031814 4
421 1 17.88 3.57746 7.19109 5.30644 2.5589 -3.5221 1 -7.38275 0.0293234 4
709 1 17.8374 0.0106031 7.19934 19.0381 -10.4957 7.17329 1 -7.30331 0.326192 4
423 1 0.934697 4.47156 4.51272 -2.48672 -5.56303 6.15094 1 -7.25429 0.0466603 4
424 1 0.88857 6.26535 6.29153 -0.0145995 -3.33981 -1.93539 1 -7.32004 0.00927433 4
425 1 2.71573 4.47436 6.27484 -5.3755 -7.69268 10.5594 1 -7.3844 0.124221 4
426 1 2.70106 6.22129 4.48918 3.10127 -0.409101 -7.66909 1 -7.27169 0.0426985 4
427 1 3.58268 5.37091 5.37907 -0.0482632 0.0827199 -0.950095 1 -7.44898 0.000567561 4
428 1 1.76854 7.15564 5.40183 1.57425 4.69505 9.75309 1 -7.2921 0.0744699 4
429 1 0.90694 8.03109 4.44659 -3.0368 -3.13098 4.41722 1 -7.31495 0.0239865 4
430 1 2.68444 8.04185 6.27889 -8.2586 -6.12195 3.98327 1 -7.24731 0.0756555 4
431 1 1.79531 5.3679 7.19148 -3.46545 -3.32798 -1.812 1 -7.26952 0.0164122 4
432 1 0.840637 4.45428 8.0903 -4.96724 3.08085 -2.35307 1 -7.27963 0.0247116 4