ITEM: TIMESTEP
49126550
ITEM: NUMBER OF ATOMS
3060
ITEM: BOX BOUNDS pp pp mm
0.0000000000000000e+00 2.1394294200000001e+01
0.0000000000000000e+00 2.1394294200000001e+01
-5.3491084073550004e-03 5.3485735499999997e+01
ITEM: ATOMS id type x y z vx vy vz c_clusts c_atom_pe c_atom_ke c_atom_coord
1 1 0 0 0 0 0 0 1 -3.33621 0 2
2 1 1.78286 1.78286 0 0 0 0 1 -3.33596 0 2
3 1 0.891429 0.891429 0.891429 0 0 0 1 -7.00846 0 4
4 1 0.908739 2.6737 2.64691 -1.04289 6.76243 -6.72544 1 -7.35527 0.0572941 4
5 1 2.66698 0.892315 2.65603 1.56811 -0.424936 -8.94054 1 -7.3786 0.0513955 4
6 1 2.67429 2.67429 0.891429 0 0 0 1 -7.0467 0 4
7 1 3.56572 0 0 0 0 0 1 -3.32229 0 2
8 1 3.5482 1.80855 1.76882 -1.26855 -3.2731 -2.54576 1 -7.36283 0.0117037 4
9 1 0 3.56572 0 0 0 0 1 -3.33381 0 2
10 1 1.81544 3.57592 1.77027 -4.16945 3.54999 6.98855 1 -7.35263 0.0490637 4
11 1 3.56572 3.56572 0 0 0 0 1 -3.33608 0 2
12 1 1.77546 1.75164 3.56295 9.10935 -6.26345 2.30922 1 -7.34463 0.0793865 4
13 1 3.58512 3.53491 3.55718 -7.40509 8.57527 -1.42369 1 -7.21473 0.0811629 4
292 1 1.79587 0.00968006 1.77892 5.33631 -0.933388 -3.27153 1 -7.36618 0.0249284 4
55 1 0.00278324 1.79062 1.77292 -5.84864 -1.26405 3.09357 1 -7.36671 0.0282423 4
350 1 0.00185985 -0.022763 3.56364 -8.57403 -4.80354 -3.50561 1 -7.33028 0.0677681 4
14 1 5.34857 1.78286 0 0 0 0 1 -3.33966 0 2
15 1 4.45714 0.891429 0.891429 0 0 0 1 -7.00935 0 4
16 1 4.47107 2.66461 2.68012 -5.4297 -2.65167 5.36772 1 -7.35738 0.0406603 4
17 1 6.28091 0.842562 2.614 -5.30143 -1.10591 4.68772 1 -7.27073 0.0319323 4
18 1 6.24 2.67429 0.891429 0 0 0 1 -7.02789 0 4
19 1 7.13143 0 0 0 0 0 1 -3.34918 0 2
20 1 7.15501 1.7666 1.74996 -4.38882 -1.50078 2.95033 1 -7.38011 0.0188088 4
21 1 8.02286 0.891429 0.891429 0 0 0 1 -6.91785 0 4
22 1 8.0366 2.63458 2.67064 -1.44898 -7.70216 -1.25469 1 -7.35229 0.039211 4
23 1 5.3549 3.56344 1.80202 4.73643 11.8047 7.57659 1 -7.36274 0.136429 4
24 1 7.13143 3.56572 0 0 0 0 1 -3.32669 0 2
25 1 5.37796 1.7484 3.55201 8.19138 -1.82801 -7.43934 1 -7.2795 0.0782913 4
26 1 7.12292 3.55608 3.52166 10.033 2.47532 4.06171 1 -7.34246 0.0767357 4
28 1 8.91429 1.78286 0 0 0 0 1 -3.32284 0 2
29 1 9.8547 0.883398 2.68896 0.771 4.5708 -3.23357 1 -7.34593 0.0198819 4
30 1 9.80572 2.67429 0.891429 0 0 0 1 -6.99971 0 4
31 1 10.6971 0 0 0 0 0 1 -3.33712 0 2
32 1 10.7331 1.78356 1.75316 -5.18807 -1.76021 -2.19368 1 -7.33591 0.021677 4
33 1 12.48 1.78286 0 0 0 0 1 -3.33946 0 2
34 1 11.5886 0.891429 0.891429 0 0 0 1 -7.01982 0 4
35 1 11.6001 2.63263 2.66375 2.67682 1.45067 -10.8135 1 -7.31955 0.0785514 4
36 1 8.9063 3.55641 1.81295 0.396021 7.21478 0.301851 1 -7.31786 0.0325535 4
37 1 10.6971 3.56572 0 0 0 0 1 -3.3272 0 2
38 1 12.4895 3.56039 1.77609 -1.39587 -4.64007 -8.11635 1 -7.32152 0.0556162 4
39 1 8.93741 1.76216 3.50875 -3.64775 -2.38482 -7.77002 1 -7.3716 0.0493999 4
40 1 12.4692 1.76215 3.58877 -2.21549 9.70052 -0.621829 1 -7.329 0.0618661 4
41 1 10.6844 3.54783 3.54684 -3.9873 -4.45841 -7.38533 1 -7.34469 0.056217 4
42 1 13.3798 0.850012 2.6725 7.69593 4.08558 6.26374 1 -7.2847 0.0716747 4
43 1 13.3714 2.67429 0.891429 0 0 0 1 -7.00877 0 4
44 1 14.2629 0 0 0 0 0 1 -3.33728 0 2
45 1 14.2718 1.77751 1.81216 -5.78563 0.398704 -3.03806 1 -7.36665 0.0266786 4
46 1 16.0457 1.78286 0 0 0 0 1 -3.33186 0 2
47 1 15.1543 0.891429 0.891429 0 0 0 1 -6.99961 0 4
48 1 15.1399 2.64822 2.66918 2.55929 -5.38081 12.3335 1 -7.37747 0.116779 4
49 1 16.92 0.868482 2.67448 -1.53486 -3.21109 4.4534 1 -7.34806 0.0202287 4
50 1 16.9371 2.67429 0.891429 0 0 0 1 -7.02433 0 4
51 1 14.2629 3.56572 0 0 0 0 1 -3.33204 0 2
52 1 16.0342 3.56459 1.76982 -6.86268 5.46776 -1.92617 1 -7.38347 0.0502317 4
53 1 16.0467 1.76652 3.56483 0.496045 -4.66429 -1.57244 1 -7.37902 0.0152334 4
54 1 14.2712 3.52732 3.59177 3.01149 0.0394216 -3.81283 1 -7.31394 0.0146944 4
336 1 14.2604 0.0137656 3.55992 3.89841 -3.48273 -6.49874 1 -7.29934 0.0432964 4
56 1 21.4003 3.58218 3.54853 6.11746 -3.30231 2.54155 1 -7.39695 0.0341015 4
57 1 17.8286 0 0 0 0 0 1 -3.32879 0 2
58 1 17.8094 1.79497 1.78416 -3.05735 -2.79627 -3.15978 1 -7.37185 0.0168993 4
59 1 19.6114 1.78286 0 0 0 0 1 -3.33387 0 2
60 1 18.72 0.891429 0.891429 0 0 0 1 -6.99738 0 4
61 1 18.6984 2.67956 2.6525 -5.92524 1.42573 -2.1699 1 -7.36804 0.0260483 4
62 1 20.5118 0.907436 2.67257 -0.469129 4.06188 -3.70937 1 -7.33963 0.0189706 4
63 1 20.5029 2.67429 0.891429 0 0 0 1 -7.02607 0 4
64 1 17.8286 3.56572 0 0 0 0 1 -3.32714 0 2
65 1 19.6285 3.56835 1.80725 -7.37677 1.3144 1.65385 1 -7.32094 0.0366482 4
66 1 19.5909 1.7775 3.55256 3.66476 -3.21794 -1.14991 1 -7.32059 0.0156278 4
67 1 17.8404 3.56507 3.5519 2.01189 -1.4354 3.40525 1 -7.31648 0.0110193 4
68 1 19.6238 0.0193087 1.76133 -2.20862 2.27498 -2.1201 1 -7.32936 0.00905528 4
349 1 17.8237 -0.00847521 3.57777 1.36283 -4.06903 -4.03642 1 -7.33893 0.0216025 4
69 1 1.78286 5.34857 0 0 0 0 1 -3.3339 0 2
70 1 0.891429 4.45714 0.891429 0 0 0 1 -6.99843 0 4
71 1 0.878408 6.23184 2.69708 -4.64271 2.52583 -3.83548 1 -7.33877 0.0265437 4
72 1 2.68261 4.50637 2.6588 -5.22165 -2.85275 -0.291878 1 -7.28342 0.0220893 4
73 1 2.67429 6.24 0.891429 0 0 0 1 -7.01714 0 4
74 1 3.58634 5.36023 1.79928 0.0355399 -7.86332 2.8499 1 -7.34159 0.0435418 4
75 1 0 7.13143 0 0 0 0 1 -3.34619 0 2
76 1 1.78642 7.10398 1.79653 7.9557 -2.41239 -3.61718 1 -7.30715 0.0511614 4
77 1 0.891429 8.02286 0.891429 0 0 0 1 -6.99626 0 4
78 1 2.65494 8.06545 2.64481 -7.68386 -3.59097 -5.62193 1 -7.29047 0.0644478 4
79 1 3.56572 7.13143 0 0 0 0 1 -3.33342 0 2
80 1 1.78685 5.35009 3.63268 3.14471 2.20496 9.71551 1 -7.31295 0.067933 4
81 1 3.56601 7.08437 3.56113 5.99889 -2.79285 -2.62411 1 -7.26421 0.03154 4
83 1 5.34857 5.34857 0 0 0 0 1 -3.33808 0 2
84 1 4.45714 4.45714 0.891429 0 0 0 1 -7.01549 0 4
85 1 4.45824 6.22263 2.69862 7.30462 -3.65291 0.159517 1 -7.36716 0.0415324 4
86 1 6.20939 4.43358 2.68202 0.494456 13.5857 -0.747225 1 -7.3812 0.115382 4
87 1 6.24 6.24 0.891429 0 0 0 1 -7.01817 0 4
88 1 7.11215 5.36883 1.78149 1.54571 5.27109 -0.620612 1 -7.30504 0.0190206 4
89 1 8.02286 4.45714 0.891429 0 0 0 1 -6.98531 0 4
90 1 8.04773 6.26697 2.64291 -2.7086 -3.43327 -0.372163 1 -7.32712 0.0119894 4
91 1 5.36468 7.13545 1.77641 -4.99328 -2.2943 -0.750284 1 -7.34045 0.0191456 4
92 1 4.45714 8.02286 0.891429 0 0 0 1 -7.03647 0 4
93 1 6.27567 8.01568 2.65879 -2.64174 4.99455 5.92462 1 -7.30694 0.0417184 4
94 1 7.13143 7.13143 0 0 0 0 1 -3.34863 0 2
95 1 8.02286 8.02286 0.891429 0 0 0 1 -6.97044 0 4
96 1 5.35408 5.29486 3.55635 0.405929 -0.661691 4.42896 1 -7.37695 0.0125844 4
97 1 7.1109 7.12915 3.53531 3.26189 1.80752 -10.1171 1 -7.3532 0.0723655 4
98 1 8.91429 5.34857 0 0 0 0 1 -3.34101 0 2
99 1 9.83534 4.44291 2.67035 -0.0259042 4.82455 0.627053 1 -7.34787 0.0147329 4
100 1 9.80572 6.24 0.891429 0 0 0 1 -7.04167 0 4
101 1 10.7002 5.3574 1.76889 -2.57067 10.1723 0.953061 1 -7.35298 0.0690839 4
102 1 12.48 5.34857 0 0 0 0 1 -3.31377 0 2
103 1 11.5886 4.45714 0.891429 0 0 0 1 -7.01533 0 4
104 1 11.569 6.24609 2.68662 7.56843 0.505106 -8.21909 1 -7.31505 0.0778591 4
105 1 8.91856 7.13276 1.79081 -1.53106 1.98002 1.07904 1 -7.38336 0.00462399 4
106 1 9.77654 8.05542 2.68489 -5.0129 3.12475 2.74657 1 -7.32691 0.0264138 4
107 1 10.6971 7.13143 0 0 0 0 1 -3.3358 0 2
108 1 12.4404 7.15336 1.74416 2.56887 5.94575 -1.8667 1 -7.32407 0.0282803 4
109 1 11.5886 8.02286 0.891429 0 0 0 1 -7.00262 0 4
110 1 8.92674 5.36948 3.52636 -3.31893 -3.30397 -3.19882 1 -7.34284 0.0200197 4
111 1 12.4588 5.30774 3.58137 1.76702 -2.80214 3.07696 1 -7.38546 0.0127236 4
112 1 10.7237 7.14945 3.55139 3.33252 -4.30978 0.984304 1 -7.27347 0.0190766 4
113 1 13.3495 4.48187 2.68696 3.50185 2.04596 -1.42843 1 -7.28905 0.0115082 4
114 1 13.3714 6.24 0.891429 0 0 0 1 -7.00054 0 4
115 1 14.2752 5.34757 1.75528 -0.247654 -3.53236 6.80109 1 -7.38144 0.0365947 4
116 1 16.0457 5.34857 0 0 0 0 1 -3.32201 0 2
117 1 15.1543 4.45714 0.891429 0 0 0 1 -7.0547 0 4
118 1 15.1085 6.22534 2.67723 -6.90813 -4.21468 -2.93205 1 -7.23416 0.046111 4
119 1 16.9011 4.45719 2.64421 -3.96721 6.29334 -12.5613 1 -7.32663 0.132658 4
120 1 16.9371 6.24 0.891429 0 0 0 1 -7.02565 0 4
121 1 13.3294 8.00553 2.64711 2.77291 -1.31834 6.66911 1 -7.31716 0.0335513 4
122 1 14.2629 7.13143 0 0 0 0 1 -3.30209 0 2
123 1 16.0771 7.14851 1.75193 2.7212 -4.50528 -4.58589 1 -7.28783 0.0303326 4
124 1 15.1543 8.02286 0.891429 0 0 0 1 -6.98976 0 4
125 1 16.9599 8.03734 2.66857 -16.6627 3.76613 1.46213 1 -7.39711 0.182973 4
126 1 16.0806 5.361 3.55275 -1.68844 -2.23132 0.26665 1 -7.33758 0.00491762 4
127 1 14.2284 7.10339 3.55667 1.46459 3.09985 1.23839 1 -7.3658 0.00827061 4
128 1 21.375 5.3476 1.7994 0.622535 -3.65773 2.10209 1 -7.36529 0.011319 4
82 1 21.367 7.14678 3.55584 4.28384 -1.22809 0.135387 1 -7.29747 0.0123724 4
129 1 17.7993 5.32883 1.73751 -3.84779 2.02065 1.30855 1 -7.28989 0.0128225 4
130 1 19.6114 5.34857 0 0 0 0 1 -3.32041 0 2
131 1 18.72 4.45714 0.891429 0 0 0 1 -7.00132 0 4
132 1 18.7048 6.26067 2.6914 -4.59898 0.818107 2.45231 1 -7.29184 0.0173244 4
133 1 20.5099 4.50263 2.71992 -5.19375 -1.68154 1.36863 1 -7.3916 0.0197158 4
134 1 20.5029 6.24 0.891429 0 0 0 1 -7.01059 0 4
135 1 17.8286 7.13143 0 0 0 0 1 -3.31046 0 2
136 1 19.5607 7.11711 1.7808 -1.79438 -4.98645 5.44984 1 -7.31775 0.0359671 4
137 1 18.72 8.02286 0.891429 0 0 0 1 -6.99083 0 4
138 1 20.4918 8.04569 2.66089 2.14085 -3.34064 5.46032 1 -7.28967 0.0283566 4
139 1 19.6027 5.35288 3.59459 -5.91751 3.37881 4.14154 1 -7.39129 0.0395774 4
140 1 17.7968 7.15927 3.56454 -5.17787 -6.54063 0.409824 1 -7.36672 0.0434192 4
141 1 1.78286 8.91429 0 0 0 0 1 -3.33839 0 2
142 1 0.915524 9.79473 2.6832 3.36311 1.66865 0.771368 1 -7.27643 0.00914337 4
143 1 2.67429 9.80572 0.891429 0 0 0 1 -7.0057 0 4
144 1 3.54667 8.92217 1.76241 3.34891 -4.36435 3.02049 1 -7.41606 0.024515 4
145 1 0 10.6971 0 0 0 0 1 -3.35497 0 2
146 1 1.78346 10.7292 1.7493 3.05787 -3.41378 -2.65103 1 -7.34799 0.0174481 4
147 1 1.78286 12.48 0 0 0 0 1 -3.31852 0 2
148 1 0.891429 11.5886 0.891429 0 0 0 1 -7.05174 0 4
149 1 2.69606 11.6001 2.68079 -3.79997 6.81676 -1.49566 1 -7.312 0.0393031 4
150 1 3.56572 10.6971 0 0 0 0 1 -3.32772 0 2
151 1 3.58763 12.4832 1.83159 4.24853 4.05102 1.23578 1 -7.36118 0.0223998 4
152 1 1.75196 8.92404 3.57143 -2.29421 5.31338 -0.371483 1 -7.3489 0.0209343 4
153 1 1.79018 12.4975 3.56244 -1.1119 4.31888 0.865825 1 -7.38758 0.0128461 4
154 1 3.54995 10.6803 3.59952 0.100181 1.58717 5.08311 1 -7.36716 0.0176565 4
205 1 0.021523 8.88733 1.77539 7.79864 -5.71945 -1.6322 1 -7.35402 0.0598743 4
204 1 0.0274687 12.5029 1.75508 12.8013 -1.76385 -1.01066 1 -7.31967 0.104571 4
203 1 0.0254056 10.6864 3.58228 -1.25715 -1.67349 -2.50024 1 -7.36726 0.00661776 4
155 1 5.34857 8.91429 0 0 0 0 1 -3.33462 0 2
156 1 4.41004 9.79223 2.65991 4.97543 -3.76451 -2.08688 1 -7.3309 0.0269395 4
157 1 6.24 9.80572 0.891429 0 0 0 1 -7.04466 0 4
158 1 7.16667 8.96165 1.79382 3.76829 1.11479 -0.246353 1 -7.31027 0.00964975 4
159 1 8.05942 9.85358 2.67716 -2.07363 3.21034 7.40979 1 -7.37366 0.0432656 4
160 1 5.33428 10.6973 1.74776 3.29195 -3.00584 -8.53683 1 -7.32124 0.0577297 4
161 1 5.34857 12.48 0 0 0 0 1 -3.34264 0 2
162 1 4.45714 11.5886 0.891429 0 0 0 1 -6.98655 0 4
163 1 6.15104 11.6041 2.69436 -3.45304 -1.53029 6.01455 1 -7.33193 0.0313952 4
164 1 7.13143 10.6971 0 0 0 0 1 -3.31987 0 2
165 1 7.10446 12.4806 1.81136 -1.79718 -0.571067 -2.59809 1 -7.30409 0.00641476 4
166 1 8.02286 11.5886 0.891429 0 0 0 1 -7.02236 0 4
167 1 5.31264 8.89941 3.56154 4.34857 1.50795 -5.73837 1 -7.26178 0.0336812 4
168 1 5.33894 12.4963 3.58234 4.3168 2.48937 -7.19833 1 -7.38275 0.0477075 4
169 1 7.08313 10.6924 3.52268 0.563951 -3.69743 0.0506427 1 -7.25914 0.00870874 4
170 1 8.91429 8.91429 0 0 0 0 1 -3.32929 0 2
171 1 9.80572 9.80572 0.891429 0 0 0 1 -6.97464 0 4
172 1 10.7008 8.97942 1.79303 3.17272 4.74713 1.7511 1 -7.29092 0.0222006 4
173 1 12.48 8.91429 0 0 0 0 1 -3.30334 0 2
174 1 11.6109 9.86507 2.68051 -8.80648 6.2117 2.48185 1 -7.33646 0.076122 4
175 1 8.86916 10.7388 1.78173 -4.07851 -1.94089 0.444696 1 -7.30025 0.0128214 4
176 1 8.91429 12.48 0 0 0 0 1 -3.34872 0 2
177 1 9.79157 11.6218 2.71567 -0.834658 -5.02656 -2.73367 1 -7.30211 0.0208114 4
178 1 10.6971 10.6971 0 0 0 0 1 -3.32507 0 2
179 1 10.7264 12.4518 1.78074 1.07562 -4.68366 2.01856 1 -7.29725 0.0169102 4
180 1 12.4955 10.704 1.75177 -7.7512 3.58265 -0.699341 1 -7.34883 0.0456895 4
181 1 12.48 12.48 0 0 0 0 1 -3.32886 0 2
182 1 11.5886 11.5886 0.891429 0 0 0 1 -7.05694 0 4
183 1 8.90612 8.92563 3.5502 9.96026 3.91706 -3.75017 1 -7.38576 0.0800527 4
184 1 12.4799 8.89975 3.59443 4.61176 -2.70943 2.21548 1 -7.29864 0.0208623 4
185 1 8.90898 12.4851 3.61048 3.23257 -4.72151 2.16009 1 -7.3678 0.0232839 4
186 1 10.7157 10.741 3.56874 -4.5034 11.1066 -3.65546 1 -7.34959 0.0977204 4
187 1 12.4555 12.5036 3.59823 0.808911 1.05214 -6.5954 1 -7.35202 0.0281714 4
188 1 13.3714 9.80572 0.891429 0 0 0 1 -7.05634 0 4
189 1 14.2026 8.90079 1.72875 -5.37683 -5.38288 0.504634 1 -7.31656 0.0361881 4
190 1 16.0457 8.91429 0 0 0 0 1 -3.33535 0 2
191 1 15.1485 9.80513 2.65933 0.244675 -4.21219 10.0679 1 -7.20463 0.0741713 4
192 1 16.9371 9.80572 0.891429 0 0 0 1 -7.01551 0 4
193 1 13.3566 11.6268 2.67315 -8.24935 3.98269 10.1059 1 -7.29061 0.115798 4
194 1 14.2629 10.6971 0 0 0 0 1 -3.34548 0 2
195 1 14.2316 12.4978 1.7723 -3.50379 5.46576 2.52038 1 -7.36264 0.0301898 4
196 1 16.0869 10.7554 1.77152 -5.5796 0.720846 -2.89725 1 -7.29508 0.0249254 4
197 1 16.0457 12.48 0 0 0 0 1 -3.30426 0 2
198 1 15.1543 11.5886 0.891429 0 0 0 1 -6.97879 0 4
199 1 16.9229 11.634 2.69345 5.2062 1.77476 -7.76518 1 -7.36141 0.0563621 4
200 1 16.0198 8.90553 3.55839 -1.93515 -0.534543 -3.11759 1 -7.35487 0.00855831 4
201 1 14.2431 10.68 3.58919 -8.88487 -1.2157 -1.32815 1 -7.32058 0.0511528 4
202 1 16.0344 12.4642 3.59339 2.04106 -3.38397 -4.55948 1 -7.44575 0.02266 4
206 1 17.8022 8.90861 1.79785 -1.59621 4.06765 -4.56864 1 -7.35393 0.024876 4
207 1 19.6114 8.91429 0 0 0 0 1 -3.34395 0 2
208 1 18.7308 9.80302 2.67742 -7.63915 -1.61893 -1.68595 1 -7.35969 0.0397232 4
209 1 20.5029 9.80572 0.891429 0 0 0 1 -6.96496 0 4
210 1 17.8286 10.6971 0 0 0 0 1 -3.30833 0 2
211 1 17.7916 12.4814 1.79163 10.7787 -5.5982 -7.22082 1 -7.33972 0.124274 4
212 1 19.5843 10.6692 1.82657 -3.63128 9.60334 -5.43182 1 -7.36261 0.0839746 4
213 1 19.6114 12.48 0 0 0 0 1 -3.36566 0 2
214 1 18.72 11.5886 0.891429 0 0 0 1 -6.97546 0 4
215 1 20.4934 11.5804 2.67475 -0.177733 -9.7052 -7.74745 1 -7.27576 0.0960064 4
216 1 19.6036 8.92883 3.60614 -2.62016 -2.51069 -3.94631 1 -7.34881 0.0178899 4
217 1 17.7976 10.6975 3.56823 5.91189 -1.45538 -3.5862 1 -7.29119 0.0310773 4
218 1 19.6058 12.5289 3.52272 6.33229 1.43942 -1.334 1 -7.32117 0.0273552 4
219 1 0.901887 13.3713 2.65413 1.41816 -3.17897 0.165319 1 -7.39996 0.00755899 4
220 1 2.67429 13.3714 0.891429 0 0 0 1 -6.98874 0 4
221 1 0 14.2629 0 0 0 0 1 -3.31379 0 2
222 1 1.78312 14.256 1.76239 4.47322 -4.05146 -1.2974 1 -7.37443 0.0237189 4
223 1 1.78286 16.0457 0 0 0 0 1 -3.3296 0 2
224 1 0.891429 15.1543 0.891429 0 0 0 1 -7.0195 0 4
225 1 0.88552 16.9249 2.65367 1.93295 -2.01635 2.36041 1 -7.32285 0.00832402 4
226 1 2.67506 15.1375 2.64878 -4.51827 10.8451 -8.28853 1 -7.26066 0.128675 4
227 1 2.67429 16.9371 0.891429 0 0 0 1 -7.02096 0 4
228 1 3.56572 14.2629 0 0 0 0 1 -3.34447 0 2
229 1 3.56558 16.0719 1.77879 9.96017 -4.4947 -1.69678 1 -7.34946 0.0761143 4
230 1 1.79379 16.04 3.59476 -4.42145 2.09101 -3.43298 1 -7.27785 0.0222249 4
231 1 3.56434 14.2318 3.61659 2.2456 4.87156 -2.28526 1 -7.28669 0.0211607 4
233 1 0.00165081 16.0259 1.74474 5.61077 3.34795 0.886365 1 -7.35358 0.0270601 4
232 1 0.0171358 14.2594 3.50782 -0.811503 -0.149005 3.90335 1 -7.30694 0.00990709 4
234 1 4.47154 13.358 2.70198 -9.82323 -1.81735 -2.24873 1 -7.38083 0.0652647 4
235 1 6.24 13.3714 0.891429 0 0 0 1 -6.96632 0 4
236 1 8.01358 13.336 2.71133 3.73226 3.20432 -2.19003 1 -7.32824 0.0180464 4
237 1 5.34796 14.2775 1.8262 2.47509 2.57953 0.467696 1 -7.32975 0.00809076 4
238 1 5.34857 16.0457 0 0 0 0 1 -3.33551 0 2
239 1 4.45714 15.1543 0.891429 0 0 0 1 -6.99449 0 4
240 1 4.42987 16.942 2.67253 -4.23317 11.1635 -1.51128 1 -7.36236 0.0901446 4
241 1 6.26793 15.1737 2.68833 9.29799 1.20348 0.644297 1 -7.34598 0.0549703 4
242 1 6.24 16.9371 0.891429 0 0 0 1 -7.01453 0 4
243 1 7.13143 14.2629 0 0 0 0 1 -3.3638 0 2
244 1 7.16505 16.0617 1.78069 -3.33229 1.47376 -4.0419 1 -7.40347 0.018432 4
245 1 8.02286 15.1543 0.891429 0 0 0 1 -7.01391 0 4
246 1 8.04987 16.9055 2.65662 -9.80529 4.94622 -0.396711 1 -7.34595 0.075168 4
247 1 5.33129 16.0168 3.59414 -1.70883 -4.43733 -1.34823 1 -7.27747 0.0152044 4
248 1 7.13055 14.2598 3.60719 -5.60792 -3.58023 -5.9805 1 -7.30356 0.0498148 4
249 1 9.80572 13.3714 0.891429 0 0 0 1 -6.94368 0 4
250 1 11.5767 13.3917 2.71754 -0.551477 2.56933 1.50213 1 -7.27819 0.00570264 4
251 1 8.91159 14.2878 1.81535 -2.80948 2.96112 1.55909 1 -7.33214 0.0118835 4
252 1 8.91429 16.0457 0 0 0 0 1 -3.3287 0 2
253 1 9.81908 15.165 2.6834 3.89681 1.68532 1.55122 1 -7.35759 0.0127173 4
254 1 9.80572 16.9371 0.891429 0 0 0 1 -7.00392 0 4
255 1 10.6971 14.2629 0 0 0 0 1 -3.33575 0 2
256 1 10.6919 16.06 1.78142 -9.40072 -0.691429 -2.14305 1 -7.3559 0.0581622 4
257 1 12.4695 14.3012 1.77241 -0.125521 1.38086 5.47583 1 -7.30419 0.0198599 4
258 1 12.48 16.0457 0 0 0 0 1 -3.32208 0 2
259 1 11.5886 15.1543 0.891429 0 0 0 1 -7.0244 0 4
260 1 11.591 16.9742 2.65491 2.38481 -1.72038 11.5021 1 -7.34237 0.0877275 4
261 1 8.93697 16.0317 3.60967 1.21901 3.36389 -3.19627 1 -7.24256 0.0143269 4
262 1 10.6853 14.2883 3.60933 0.836395 7.65976 -9.75549 1 -7.35442 0.0961904 4
263 1 12.4639 16.0397 3.54505 -6.3804 1.24349 1.011 1 -7.37235 0.0269373 4
264 1 13.3714 13.3714 0.891429 0 0 0 1 -7.03725 0 4
265 1 15.1667 13.3108 2.6675 -6.53139 3.05268 -5.27947 1 -7.25844 0.0497011 4
266 1 16.9371 13.3714 0.891429 0 0 0 1 -6.98501 0 4
267 1 13.372 15.1844 2.65738 -3.12135 -0.605811 3.69969 1 -7.33832 0.0148122 4
268 1 13.3714 16.9371 0.891429 0 0 0 1 -7.02616 0 4
269 1 14.2629 14.2629 0 0 0 0 1 -3.31964 0 2
270 1 14.2694 16.0294 1.744 -6.58993 -0.471916 4.91282 1 -7.37271 0.0421916 4
271 1 16.023 14.2507 1.7947 0.691123 -0.585481 -5.27624 1 -7.3624 0.0178382 4
272 1 16.0457 16.0457 0 0 0 0 1 -3.34752 0 2
273 1 15.1543 15.1543 0.891429 0 0 0 1 -7.05283 0 4
274 1 15.1706 16.9575 2.6358 4.35854 -6.18626 -7.18849 1 -7.30697 0.0678078 4
275 1 16.9188 15.0968 2.65805 2.28355 1.80025 -1.49305 1 -7.28951 0.00665042 4
276 1 16.9371 16.9371 0.891429 0 0 0 1 -7.05586 0 4
277 1 14.2134 14.2584 3.58572 -5.46821 -4.0779 -0.00121125 1 -7.27251 0.0289619 4
278 1 16.0318 16.055 3.5695 1.07871 4.90785 -3.02948 1 -7.2667 0.0214291 4
279 1 18.7187 13.3754 2.66242 6.11362 -4.3506 -2.99604 1 -7.33116 0.0406322 4
280 1 20.5029 13.3714 0.891429 0 0 0 1 -7.02724 0 4
281 1 17.8286 14.2629 0 0 0 0 1 -3.34151 0 2
282 1 17.7939 16.059 1.77846 6.4824 6.64754 3.22445 1 -7.32795 0.0601316 4
283 1 19.6549 14.2295 1.7911 2.41069 -7.12711 6.24629 1 -7.35058 0.0595184 4
284 1 19.6114 16.0457 0 0 0 0 1 -3.31338 0 2
285 1 18.72 15.1543 0.891429 0 0 0 1 -6.91936 0 4
286 1 18.7269 16.8937 2.63725 -0.0224655 6.13999 3.4769 1 -7.37694 0.0309899 4
287 1 20.5148 15.0958 2.63674 0.14311 0.42068 5.14562 1 -7.36214 0.0166031 4
288 1 20.5029 16.9371 0.891429 0 0 0 1 -7.02464 0 4
289 1 17.8215 14.2115 3.56531 -3.74218 7.35072 -0.248811 1 -7.3485 0.0423866 4
290 1 19.6149 15.9993 3.54352 5.71918 -7.29587 2.41479 1 -7.36226 0.05712 4
291 1 3.53287 21.3808 3.53998 3.78544 4.17413 -1.77059 1 -7.31361 0.0217151 4
293 1 0 17.8286 0 0 0 0 1 -3.33262 0 2
294 1 1.75191 17.8243 1.77787 -1.0328 5.16645 -4.70753 1 -7.35614 0.0310713 4
295 1 1.78286 19.6114 0 0 0 0 1 -3.34329 0 2
296 1 0.891429 18.72 0.891429 0 0 0 1 -6.99287 0 4
297 1 0.881356 20.5029 2.66284 3.77558 -4.28982 -8.7426 1 -7.36988 0.0679008 4
298 1 2.62418 18.7365 2.66241 2.7581 3.79485 4.83632 1 -7.37807 0.0282569 4
299 1 2.67429 20.5029 0.891429 0 0 0 1 -7.03745 0 4
300 1 3.56572 17.8286 0 0 0 0 1 -3.32159 0 2
301 1 3.51312 19.6198 1.76958 0.232294 7.76294 9.44302 1 -7.32713 0.0930451 4
302 1 1.76111 19.5756 3.51386 -0.682394 0.896145 6.02451 1 -7.31954 0.0233805 4
303 1 3.51966 17.8315 3.53127 0.866155 -3.01625 -7.71738 1 -7.3764 0.0432001 4
306 1 7.12901 21.3733 3.54546 -1.41022 -0.822509 -5.3608 1 -7.36623 0.0195463 4
27 1 5.30528 21.3611 1.77732 -2.21889 5.90296 -0.96288 1 -7.3344 0.02533 4
307 1 5.33251 17.8393 1.78138 5.5056 3.50338 -8.38353 1 -7.38604 0.0702526 4
308 1 5.34857 19.6114 0 0 0 0 1 -3.32431 0 2
309 1 4.45714 18.72 0.891429 0 0 0 1 -6.99805 0 4
310 1 4.45718 20.4612 2.67398 -4.6626 -1.52399 4.02241 1 -7.35426 0.0250478 4
311 1 6.22349 18.7005 2.6797 -0.356106 -3.01693 1.97216 1 -7.3557 0.00816504 4
312 1 6.24 20.5029 0.891429 0 0 0 1 -6.97674 0 4
313 1 7.13143 17.8286 0 0 0 0 1 -3.32156 0 2
314 1 7.13086 19.6124 1.78834 0.712399 3.18182 3.74734 1 -7.35965 0.0153577 4
315 1 8.02286 18.72 0.891429 0 0 0 1 -7.0233 0 4
316 1 8.0014 20.4568 2.66888 -0.601264 5.97194 -1.08096 1 -7.29464 0.0231506 4
317 1 5.34305 19.6017 3.53603 -0.992923 -8.90173 -1.05628 1 -7.33387 0.0506297 4
318 1 7.17542 17.8177 3.57499 6.09316 6.07015 3.50473 1 -7.32678 0.0536883 4
319 1 10.7223 21.3957 3.5472 -2.62684 1.67115 -7.79159 1 -7.37379 0.04382 4
320 1 8.98806 21.357 1.8077 4.32543 -4.39124 -2.33079 1 -7.22794 0.0270288 4
321 1 12.4589 21.3647 1.79584 6.06391 5.42973 3.82711 1 -7.3788 0.0503542 4
322 1 8.91303 17.8206 1.78173 -9.21787 -2.19103 -3.9482 1 -7.35077 0.0655776 4
323 1 8.91429 19.6114 0 0 0 0 1 -3.34702 0 2
324 1 9.81263 18.6949 2.66281 -0.128755 2.27198 6.88204 1 -7.37071 0.0327028 4
325 1 9.80572 20.5029 0.891429 0 0 0 1 -7.0378 0 4
326 1 10.6971 17.8286 0 0 0 0 1 -3.32595 0 2
327 1 10.6672 19.622 1.75762 -1.35799 -0.101198 -3.15566 1 -7.34917 0.00735245 4
328 1 12.496 17.8215 1.77561 -2.54215 4.19784 -6.13694 1 -7.39433 0.0384325 4
329 1 12.48 19.6114 0 0 0 0 1 -3.325 0 2
330 1 11.5886 18.72 0.891429 0 0 0 1 -6.97088 0 4
331 1 11.585 20.471 2.6566 -6.02658 2.46467 2.87151 1 -7.36315 0.0315196 4
332 1 8.93093 19.5687 3.56354 5.17853 -3.55892 -5.41266 1 -7.2859 0.0428105 4
333 1 10.6825 17.8075 3.5278 -10.257 -7.82205 -3.56451 1 -7.43908 0.111474 4
334 1 12.4275 19.5971 3.57745 -0.0573703 8.49553 -2.66265 1 -7.34517 0.0493379 4
335 1 16.0508 21.3831 1.76161 0.0290455 0.103287 2.72137 1 -7.37983 0.00461675 4
337 1 13.3736 18.7347 2.6573 -4.72619 0.499928 1.545 1 -7.28608 0.0155444 4
338 1 13.3714 20.5029 0.891429 0 0 0 1 -6.99406 0 4
339 1 14.2629 17.8286 0 0 0 0 1 -3.33593 0 2
340 1 14.2768 19.6286 1.76578 -3.73433 -2.25892 -3.88411 1 -7.38448 0.021246 4
341 1 16.0888 17.8329 1.76297 -4.58991 -1.99561 0.829426 1 -7.37091 0.0160198 4
342 1 16.0457 19.6114 0 0 0 0 1 -3.31452 0 2
343 1 15.1543 18.72 0.891429 0 0 0 1 -6.99635 0 4
344 1 15.166 20.5166 2.63408 4.92516 5.09729 -5.16337 1 -7.34589 0.0478646 4
345 1 16.9421 18.7221 2.64884 2.99554 0.301593 -1.03549 1 -7.36789 0.0063092 4
346 1 16.9371 20.5029 0.891429 0 0 0 1 -7.0381 0 4
347 1 14.2815 17.8197 3.54827 -5.19731 -0.0916757 -1.8791 1 -7.35657 0.019016 4
348 1 16.0409 19.6249 3.53907 2.25153 0.578559 -0.756333 1 -7.29555 0.00371973 4
305 1 21.3696 19.6117 1.79488 6.0673 -2.06065 -1.10941 1 -7.37215 0.0263219 4
304 1 21.3844 17.7747 3.57881 6.49739 1.03694 4.85376 1 -7.25916 0.0416093 4
351 1 17.8286 17.8286 0 0 0 0 1 -3.32103 0 2
352 1 17.832 19.6365 1.76845 3.02781 -2.90384 -0.255509 1 -7.37963 0.0109953 4
353 1 19.6105 17.7805 1.77954 -1.40185 5.43227 2.60775 1 -7.3455 0.0238234 4
354 1 19.6114 19.6114 0 0 0 0 1 -3.3325 0 2
355 1 18.72 18.72 0.891429 0 0 0 1 -6.9794 0 4
356 1 18.6974 20.4981 2.63679 5.31376 -5.13204 0.918822 1 -7.34664 0.0344937 4
357 1 20.5063 18.7232 2.64786 6.96704 -3.23202 0.116336 1 -7.29772 0.0367226 4
358 1 20.5029 20.5029 0.891429 0 0 0 1 -7.01905 0 4
359 1 17.8318 17.8231 3.53124 -1.21934 13.3373 -9.7002 1 -7.34407 0.170211 4
360 1 19.5903 19.6242 3.53279 -3.77906 -6.89698 2.97757 1 -7.37953 0.0440152 4
361 1 0.852676 0.872999 4.45846 1.51397 -2.33946 6.00604 1 -7.40099 0.0272857 4
362 1 0.849376 2.63275 6.25692 2.87615 3.08091 -2.82886 1 -7.29093 0.0160379 4
363 1 2.65147 0.831637 6.22759 4.29296 3.99482 2.34681 1 -7.31573 0.0248321 4
364 1 2.70202 2.6058 4.46418 -0.0423585 -0.938897 3.59719 1 -7.30368 0.00860384 4
365 1 3.57332 1.7737 5.37021 4.25163 7.02986 -4.74071 1 -7.32708 0.0559994 4
366 1 1.76864 3.56372 5.35372 0.143361 -2.3585 -8.03538 1 -7.25295 0.0436634 4
367 1 1.75346 1.73137 7.14794 1.93716 10.8871 0.51549 1 -7.35565 0.076277 4
368 1 0.865755 0.864983 8.03382 7.23554 8.64079 -2.33734 1 -7.32 0.0824587 4
369 1 2.63922 2.62748 7.97653 -6.23884 0.593542 8.94201 1 -7.34348 0.0742149 4
370 1 3.52635 3.58021 7.09779 4.00751 1.97855 -0.651935 1 -7.35137 0.0126974 4
371 1 0.0114422 3.579 7.12168 -6.13504 1.26543 2.83433 1 -7.3566 0.0294242 4
652 1 1.74905 -0.0335475 5.28135 -0.493378 -11.0586 1.82389 1 -7.34419 0.0783396 4
372 1 4.46883 0.854093 4.45849 -0.418001 6.41993 -1.7487 1 -7.2904 0.0276657 4
373 1 4.45035 2.67068 6.19628 -0.845039 5.01754 -1.46173 1 -7.36974 0.0174444 4
374 1 6.1942 0.88463 6.20147 8.03117 -3.23201 -5.2641 1 -7.3352 0.063896 4
375 1 6.27435 2.60763 4.40726 -3.59751 2.37908 7.49246 1 -7.30139 0.0465195 4
376 1 7.11317 1.76307 5.30487 8.50432 -5.0838 -4.92732 1 -7.38492 0.0762141 4
377 1 7.97513 0.870488 4.41584 -13.62 -5.40203 1.4843 1 -7.29411 0.134997 4
378 1 8.00068 2.66158 6.18075 -0.242211 -3.69192 -4.67367 1 -7.36318 0.0221161 4
379 1 5.34359 3.52116 5.27314 1.51745 -13.1313 1.43272 1 -7.28537 0.110037 4
380 1 5.34339 1.7953 7.08243 -0.191356 3.86351 -2.40301 1 -7.36153 0.0129077 4
381 1 4.41803 0.893652 8.02261 0.0373402 -1.75861 8.09654 1 -7.32447 0.0427284 4
382 1 6.22342 2.64657 8.02342 5.06493 7.56884 2.05409 1 -7.33612 0.0542507 4
383 1 8.01327 0.908886 7.99933 -1.1665 -3.845 -4.40511 1 -7.3884 0.0221271 4
384 1 7.15228 3.56641 7.133 2.77604 1.58944 3.41126 1 -7.33781 0.0136121 4
665 1 7.13757 0.027306 7.13597 0.0296997 -0.243655 -1.1019 1 -7.28112 0.000793247 4
386 1 9.77756 0.902818 6.18201 -4.45702 -3.70657 3.87786 1 -7.36287 0.0302757 4
387 1 9.79702 2.66665 4.39534 -4.59654 -4.54879 1.7523 1 -7.31407 0.0279409 4
388 1 10.6938 1.82511 5.33995 -0.0699093 -1.30281 -3.6608 1 -7.31107 0.00940091 4
389 1 11.5694 0.892172 4.42673 -0.874947 0.428831 -0.460431 1 -7.32258 0.000722901 4
390 1 11.5895 2.73437 6.23673 3.84742 2.38019 -3.19575 1 -7.3322 0.0190965 4
391 1 8.90215 3.56674 5.3095 -5.28784 -0.260237 -0.687566 1 -7.29891 0.0177402 4
392 1 12.5012 3.59153 5.32872 1.33604 -0.523775 -8.81358 1 -7.30506 0.0496313 4
393 1 8.88194 1.78423 7.06987 2.29219 -5.17496 5.03219 1 -7.33208 0.0357007 4
394 1 9.78709 2.65535 7.99785 -2.02141 -4.34075 2.6436 1 -7.38096 0.018621 4
395 1 12.4484 1.81865 7.11392 -4.19018 -10.793 -6.89281 1 -7.33191 0.113006 4
396 1 11.5435 0.874186 8.00443 -6.73445 1.1232 -3.16618 1 -7.35579 0.0352536 4
397 1 10.6771 3.56986 7.16564 2.22976 0.503742 2.76152 1 -7.39013 0.00799917 4
679 1 8.91452 0.00137892 5.33448 -6.96596 -3.33192 1.63073 1 -7.34368 0.0387682 4
680 1 12.4503 0.0135075 5.32846 7.29868 -0.533452 3.1671 1 -7.29649 0.0395774 4
681 1 10.6564 0.0379958 7.12019 -4.14891 1.2586 -9.87598 1 -7.35263 0.0724084 4
398 1 13.3373 0.908351 6.25955 -4.09967 0.663214 -2.09277 1 -7.32595 0.0134611 4
399 1 13.3965 2.65398 4.43731 1.2138 -12.3149 -1.14905 1 -7.37413 0.0961338 4
400 1 14.2234 1.79698 5.31373 5.30762 4.99768 -4.21214 1 -7.28988 0.0441237 4
401 1 15.1853 0.906546 4.42855 -6.46825 0.660073 -6.91916 1 -7.3428 0.056111 4
402 1 15.1464 2.6645 6.20148 4.22057 -4.7239 -5.18602 1 -7.31297 0.041717 4
403 1 16.9145 0.908674 6.25425 -1.02043 6.17702 -1.02496 1 -7.22022 0.025051 4
404 1 16.9483 2.65372 4.43322 4.18571 1.33271 -0.954561 1 -7.37252 0.0125777 4
405 1 16.034 3.57704 5.31551 -0.116535 -4.49282 5.14978 1 -7.33291 0.0290793 4
406 1 13.3592 2.69591 8.01044 2.57689 -1.81733 -2.80017 1 -7.32158 0.0110692 4
407 1 15.9937 1.78183 7.11936 1.95922 6.2076 -1.64345 1 -7.37301 0.0280551 4
408 1 15.1356 0.864796 8.00916 0.577306 -0.353462 -0.59897 1 -7.35845 0.000508512 4
409 1 16.913 2.67453 8.01028 3.78925 -3.13792 -2.3686 1 -7.31044 0.0185578 4
410 1 14.2637 3.54504 7.14888 -9.14741 2.49238 -5.2852 1 -7.36168 0.0733344 4
411 1 21.3655 1.74257 5.3583 1.74406 -2.56452 5.76086 1 -7.33478 0.0266436 4
412 1 17.8242 1.81805 5.34043 -2.56045 -3.4697 1.32269 1 -7.32227 0.0126628 4
413 1 18.7432 0.880693 4.46505 5.24859 -5.06699 6.06628 1 -7.34021 0.0560319 4
414 1 18.73 2.654 6.2314 6.4035 -6.05612 -0.88708 1 -7.34818 0.0488408 4
415 1 20.5326 0.909477 6.24564 6.97618 -2.66246 4.98226 1 -7.34244 0.0501543 4
416 1 20.5111 2.70523 4.39994 -5.36638 -1.5841 -0.696708 1 -7.21712 0.0197887 4
417 1 19.5704 3.58343 5.37282 -1.10036 2.76659 6.9528 1 -7.25098 0.0356067 4
418 1 19.6323 1.79573 7.11852 -3.63823 4.40936 8.76824 1 -7.31822 0.0681937 4
419 1 18.7192 0.854335 8.01639 -8.39937 0.685573 -4.98333 1 -7.34131 0.0596614 4
420 1 20.5421 2.70204 8.02458 5.08802 -1.68049 -0.973575 1 -7.34247 0.018461 4
421 1 17.7893 3.58256 7.13043 3.75366 2.64052 0.458747 1 -7.28995 0.0132407 4
423 1 0.863187 4.41167 4.47003 10.2253 -3.74429 2.65141 1 -7.38664 0.0781812 4
424 1 0.846923 6.24279 6.1976 0.959117 4.28376 6.08353 1 -7.2973 0.0350301 4
425 1 2.67554 4.47307 6.23565 0.809398 1.80494 0.363245 1 -7.39043 0.00251765 4
426 1 2.63796 6.22148 4.49582 0.994417 6.01553 7.28962 1 -7.34995 0.0562139 4
427 1 3.57522 5.36199 5.33906 -6.03347 -4.26818 -7.50969 1 -7.35044 0.069099 4
428 1 1.7401 7.11358 5.37153 7.82334 -0.316215 5.1697 1 -7.40258 0.0547924 4
429 1 0.840376 8.05397 4.48424 4.36012 7.65535 13.2503 1 -7.32885 0.15759 4
430 1 2.61578 7.95591 6.26972 -4.18903 0.0460575 -4.84533 1 -7.31216 0.0255365 4
431 1 1.75799 5.34285 7.09308 -2.79885 -8.9992 -7.23853 1 -7.34361 0.0878962 4
432 1 0.896015 4.46787 7.99672 8.9522 1.29662 2.07062 1 -7.32887 0.0535975 4
433 1 2.61838 6.22679 8.01168 4.54402 7.13991 -4.5029 1 -7.30192 0.0572026 4