ITEM: TIMESTEP
49124825
ITEM: NUMBER OF ATOMS
3060
ITEM: BOX BOUNDS pp pp mm
0.0000000000000000e+00 2.1394294200000001e+01
0.0000000000000000e+00 2.1394294200000001e+01
-5.3491084073550004e-03 5.3485735499999997e+01
ITEM: ATOMS id type x y z vx vy vz c_clusts c_atom_pe c_atom_ke c_atom_coord
1 1 0 0 0 0 0 0 1 -3.32879 0 2
2 1 1.78286 1.78286 0 0 0 0 1 -3.32156 0 2
3 1 0.891429 0.891429 0.891429 0 0 0 1 -7.01219 0 4
4 1 0.888778 2.66489 2.70753 -0.662864 -2.41054 -2.6992 1 -7.34742 0.008425 4
5 1 2.64382 0.856266 2.67507 0.617834 -0.706452 9.72257 1 -7.38375 0.0593852 4
6 1 2.67429 2.67429 0.891429 0 0 0 1 -7.00335 0 4
7 1 3.56572 0 0 0 0 0 1 -3.3325 0 2
8 1 3.51807 1.74025 1.7753 7.29388 5.24309 -6.48118 1 -7.34398 0.0763694 4
9 1 0 3.56572 0 0 0 0 1 -3.34404 0 2
10 1 1.77644 3.53292 1.82503 -1.79107 4.5801 -3.22833 1 -7.36032 0.0215405 4
11 1 3.56572 3.56572 0 0 0 0 1 -3.34832 0 2
12 1 1.79927 1.7661 3.62058 -1.9124 -4.77602 10.7799 1 -7.33787 0.0888033 4
13 1 3.55289 3.61557 3.57449 -8.86544 4.19961 0.57011 1 -7.30139 0.0601001 4
292 1 1.79587 0.00968006 1.77892 5.33631 -0.933388 -3.27153 1 -7.34804 0.0249284 4
291 1 3.53891 -0.00159069 3.54731 9.39687 -4.12035 8.22868 1 -7.28471 0.107673 4
56 1 0.0178579 3.56596 3.59217 12.2843 -1.30348 2.03446 1 -7.36499 0.0975607 4
14 1 5.34857 1.78286 0 0 0 0 1 -3.32596 0 2
15 1 4.45714 0.891429 0.891429 0 0 0 1 -7.03482 0 4
16 1 4.40326 2.63585 2.6894 5.04441 1.37188 -3.78691 1 -7.30564 0.0259357 4
17 1 6.20717 0.892806 2.70207 -5.8837 0.355688 4.35702 1 -7.35768 0.0334418 4
18 1 6.24 2.67429 0.891429 0 0 0 1 -6.98201 0 4
19 1 7.13143 0 0 0 0 0 1 -3.32172 0 2
20 1 7.15501 1.7666 1.74996 -4.38882 -1.50078 2.95033 1 -7.26985 0.0188088 4
21 1 8.02286 0.891429 0.891429 0 0 0 1 -7.0366 0 4
22 1 8.02165 2.69736 2.70059 2.68408 4.27866 -2.75904 1 -7.26403 0.020617 4
23 1 5.32136 3.53677 1.80404 1.70568 1.82313 0.168753 1 -7.3058 0.00389739 4
24 1 7.13143 3.56572 0 0 0 0 1 -3.35134 0 2
25 1 5.34263 1.80626 3.54256 6.72698 8.52108 -12.114 1 -7.31529 0.1647 4
26 1 7.18801 3.61605 3.59921 5.6592 -0.363519 5.59848 1 -7.32197 0.0395251 4
306 1 7.08415 0.0295282 3.56294 5.93679 -7.404 -6.45418 1 -7.38832 0.0819867 4
27 1 5.35105 0.0561764 1.76984 -2.72588 0.444995 -4.13345 1 -7.31567 0.0153825 4
28 1 8.91429 1.78286 0 0 0 0 1 -3.35405 0 2
29 1 9.82343 0.922476 2.68176 7.61413 -0.128097 -11.2757 1 -7.34639 0.115231 4
30 1 9.80572 2.67429 0.891429 0 0 0 1 -7.00598 0 4
31 1 10.6971 0 0 0 0 0 1 -3.35725 0 2
32 1 10.7198 1.78684 1.79877 -3.84948 3.70829 0.751024 1 -7.36913 0.0181338 4
33 1 12.48 1.78286 0 0 0 0 1 -3.31993 0 2
34 1 11.5886 0.891429 0.891429 0 0 0 1 -7.02672 0 4
35 1 11.6045 2.68771 2.66299 8.79228 0.38948 3.44872 1 -7.41315 0.0556135 4
36 1 8.94862 3.576 1.78735 5.49166 -0.00938941 -0.531104 1 -7.30006 0.018947 4
37 1 10.6971 3.56572 0 0 0 0 1 -3.32246 0 2
38 1 12.4895 3.56039 1.77609 -1.39587 -4.64007 -8.11635 1 -7.40714 0.0556162 4
39 1 8.94019 1.82979 3.57461 0.497498 1.26963 -1.25958 1 -7.24586 0.0021449 4
40 1 12.4759 1.81906 3.58162 3.0058 -5.45415 2.94721 1 -7.26884 0.0295457 4
41 1 10.7117 3.55293 3.58032 4.56589 -1.42806 -1.25531 1 -7.33428 0.0152261 4
319 1 10.7013 0.00128322 3.58241 -0.52637 -3.34507 -3.13036 1 -7.36508 0.0132363 4
321 1 12.4752 0.037504 1.79521 9.10812 3.42903 -4.08575 1 -7.28748 0.0693441 4
320 1 8.89112 0.0191196 1.82304 2.67869 6.82196 -3.42619 1 -7.32809 0.0407399 4
42 1 13.4177 0.846227 2.68751 5.83692 3.44211 3.63526 1 -7.26863 0.0368059 4
43 1 13.3714 2.67429 0.891429 0 0 0 1 -7.03746 0 4
44 1 14.2629 0 0 0 0 0 1 -3.30712 0 2
45 1 14.251 1.74106 1.78386 -2.07723 -2.76905 -2.18033 1 -7.31998 0.0104172 4
46 1 16.0457 1.78286 0 0 0 0 1 -3.34345 0 2
47 1 15.1543 0.891429 0.891429 0 0 0 1 -7.01635 0 4
48 1 15.1928 2.62202 2.71625 0.448458 0.350431 2.79959 1 -7.3028 0.00508002 4
49 1 16.9444 0.856365 2.70519 8.69983 -5.89585 0.403228 1 -7.30886 0.068847 4
50 1 16.9371 2.67429 0.891429 0 0 0 1 -7.00626 0 4
51 1 14.2629 3.56572 0 0 0 0 1 -3.34037 0 2
52 1 16.0342 3.56459 1.76982 -6.86268 5.46776 -1.92617 1 -7.34377 0.0502317 4
53 1 16.0279 1.74402 3.60642 5.49797 3.68448 -4.73695 1 -7.38917 0.0412306 4
54 1 14.3245 3.5688 3.58711 5.26107 3.27371 1.07023 1 -7.27214 0.0246116 4
55 1 21.386 1.7596 1.8226 -2.40158 -2.34065 0.813167 1 -7.32047 0.00741154 4
57 1 17.8286 0 0 0 0 0 1 -3.345 0 2
58 1 17.8547 1.78553 1.79529 0.671854 0.117011 -3.70623 1 -7.31817 0.00883923 4
59 1 19.6114 1.78286 0 0 0 0 1 -3.33696 0 2
60 1 18.72 0.891429 0.891429 0 0 0 1 -7.03067 0 4
61 1 18.7744 2.67911 2.71944 3.94943 -0.703021 -5.15255 1 -7.33306 0.0265409 4
62 1 20.4947 0.891782 2.70731 5.88387 2.27329 2.87088 1 -7.35139 0.029895 4
63 1 20.5029 2.67429 0.891429 0 0 0 1 -6.9953 0 4
64 1 17.8286 3.56572 0 0 0 0 1 -3.33264 0 2
65 1 19.6736 3.55203 1.80424 -2.24889 0.0542651 1.44502 1 -7.32133 0.00444944 4
66 1 19.6121 1.76497 3.63761 -2.82242 -2.76085 -2.23667 1 -7.36097 0.0128164 4
67 1 17.8981 3.55627 3.6132 -3.97931 1.68088 -0.236447 1 -7.25743 0.0116494 4
68 1 19.6238 0.0193087 1.76133 -2.20862 2.27498 -2.1201 1 -7.33244 0.00905528 4
349 1 17.8484 0.0226286 3.59244 -0.704403 -9.38039 -0.375343 1 -7.35286 0.0551648 4
69 1 1.78286 5.34857 0 0 0 0 1 -3.35714 0 2
70 1 0.891429 4.45714 0.891429 0 0 0 1 -6.95951 0 4
71 1 0.884492 6.24612 2.68375 -0.389738 6.90216 11.866 1 -7.27715 0.117385 4
72 1 2.67401 4.45067 2.68929 4.99882 6.6732 0.418772 1 -7.38092 0.0433801 4
73 1 2.67429 6.24 0.891429 0 0 0 1 -7.00547 0 4
74 1 3.53937 5.3481 1.79018 10.8338 7.76438 -2.08275 1 -7.36629 0.113278 4
75 1 0 7.13143 0 0 0 0 1 -3.36114 0 2
76 1 1.81176 7.17807 1.78733 -1.18923 0.559695 -3.08769 1 -7.29461 0.00700935 4
77 1 0.891429 8.02286 0.891429 0 0 0 1 -7.02935 0 4
78 1 2.7071 8.05276 2.67661 2.89047 5.98723 -3.73385 1 -7.36501 0.03619 4
79 1 3.56572 7.13143 0 0 0 0 1 -3.32245 0 2
80 1 1.83521 5.3666 3.61911 3.2976 3.54067 4.38615 1 -7.2847 0.0265458 4
81 1 3.61293 7.14371 3.57406 -2.43003 -1.2222 10.2334 1 -7.35322 0.0697877 4
128 1 0.0060166 5.35044 1.82195 0.235541 8.78595 6.15994 1 -7.37338 0.0716993 4
83 1 5.34857 5.34857 0 0 0 0 1 -3.35768 0 2
84 1 4.45714 4.45714 0.891429 0 0 0 1 -6.96834 0 4
85 1 4.47043 6.24797 2.644 3.41788 -5.96376 -0.976698 1 -7.35999 0.0300023 4
86 1 6.25766 4.47092 2.654 -6.27122 -4.13225 -3.4733 1 -7.28534 0.042616 4
87 1 6.24 6.24 0.891429 0 0 0 1 -7.01849 0 4
88 1 7.1502 5.34821 1.79981 -2.31922 -0.921949 -3.07766 1 -7.36569 0.00977256 4
89 1 8.02286 4.45714 0.891429 0 0 0 1 -7.011 0 4
90 1 8.02419 6.20581 2.72351 -4.04911 -10.0651 16.0028 1 -7.35683 0.232658 4
91 1 5.36468 7.13545 1.77641 -4.99328 -2.2943 -0.750284 1 -7.39079 0.0191456 4
92 1 4.45714 8.02286 0.891429 0 0 0 1 -7.01687 0 4
93 1 6.20848 7.97645 2.68426 -6.96895 2.86235 -3.49014 1 -7.33539 0.0429103 4
94 1 7.13143 7.13143 0 0 0 0 1 -3.32079 0 2
95 1 8.02286 8.02286 0.891429 0 0 0 1 -6.97172 0 4
96 1 5.33435 5.35375 3.54552 -8.045 0.37269 -4.38985 1 -7.32642 0.0523658 4
97 1 7.11839 7.13648 3.56583 7.25429 -4.00833 -6.60505 1 -7.35352 0.0699097 4
98 1 8.91429 5.34857 0 0 0 0 1 -3.33249 0 2
99 1 9.83322 4.43225 2.69075 -10.6045 2.47474 -2.92626 1 -7.34256 0.0791367 4
100 1 9.80572 6.24 0.891429 0 0 0 1 -7.01968 0 4
101 1 10.6995 5.32459 1.79481 -8.07952 -2.16612 -4.35573 1 -7.36247 0.0553606 4
102 1 12.48 5.34857 0 0 0 0 1 -3.34977 0 2
103 1 11.5886 4.45714 0.891429 0 0 0 1 -7.02145 0 4
104 1 11.5741 6.22734 2.67745 3.36933 1.11684 -8.27232 1 -7.34838 0.0504358 4
105 1 8.96201 7.10615 1.81266 -4.90301 -4.22664 -0.0838773 1 -7.28081 0.0260865 4
106 1 9.806 8.02695 2.7031 2.05225 -4.97678 2.03352 1 -7.37418 0.0206118 4
107 1 10.6971 7.13143 0 0 0 0 1 -3.34862 0 2
108 1 12.4944 7.12295 1.81839 -0.319453 -10.2835 -2.14734 1 -7.29071 0.0687555 4
109 1 11.5886 8.02286 0.891429 0 0 0 1 -6.96951 0 4
110 1 8.9057 5.33386 3.59744 -0.221142 2.96438 0.590246 1 -7.31543 0.00571687 4
111 1 12.4761 5.33131 3.57563 -4.97636 5.45676 0.942435 1 -7.35218 0.0345002 4
112 1 10.6996 7.14506 3.55804 0.61635 -1.70187 -1.46888 1 -7.37892 0.00338217 4
113 1 13.3854 4.43676 2.66007 6.02802 -11.744 0.71619 1 -7.36259 0.108783 4
114 1 13.3714 6.24 0.891429 0 0 0 1 -6.9938 0 4
115 1 14.2552 5.36129 1.80536 -6.39063 4.57898 -4.51743 1 -7.32163 0.0511723 4
116 1 16.0457 5.34857 0 0 0 0 1 -3.33649 0 2
117 1 15.1543 4.45714 0.891429 0 0 0 1 -7.01888 0 4
118 1 15.146 6.29129 2.64069 9.2824 -2.88176 -1.80885 1 -7.26992 0.0608356 4
119 1 16.9269 4.44948 2.67309 -2.36742 5.61128 -3.12172 1 -7.31385 0.0291521 4
120 1 16.9371 6.24 0.891429 0 0 0 1 -7.02292 0 4
121 1 13.396 8.04551 2.74059 -0.00693591 2.72943 -4.1416 1 -7.26662 0.0153134 4
122 1 14.2629 7.13143 0 0 0 0 1 -3.35179 0 2
123 1 16.0771 7.14851 1.75193 2.7212 -4.50528 -4.58589 1 -7.32829 0.0303326 4
124 1 15.1543 8.02286 0.891429 0 0 0 1 -7.00388 0 4
125 1 16.9739 8.05216 2.68211 -5.48963 3.22531 -3.38992 1 -7.34744 0.032385 4
126 1 16.0549 5.32483 3.58077 -7.058 -7.71778 8.85874 1 -7.26816 0.116927 4
127 1 14.2507 7.17742 3.56614 4.39549 -3.27214 2.75971 1 -7.3448 0.0234301 4
82 1 21.3903 7.17526 3.54261 -4.03127 -0.716129 3.56654 1 -7.24432 0.0183517 4
129 1 17.8243 5.32291 1.79221 -0.528928 -2.64635 2.53961 1 -7.35826 0.00854748 4
130 1 19.6114 5.34857 0 0 0 0 1 -3.32187 0 2
131 1 18.72 4.45714 0.891429 0 0 0 1 -6.98485 0 4
132 1 18.7045 6.21512 2.66911 2.60471 2.95018 -0.8778 1 -7.43239 0.0101198 4
133 1 20.5377 4.44137 2.69491 -6.25345 0.30634 -2.84934 1 -7.39288 0.0294521 4
134 1 20.5029 6.24 0.891429 0 0 0 1 -6.97894 0 4
135 1 17.8286 7.13143 0 0 0 0 1 -3.31268 0 2
136 1 19.5607 7.11711 1.7808 -1.79438 -4.98645 5.44984 1 -7.34439 0.0359671 4
137 1 18.72 8.02286 0.891429 0 0 0 1 -7.01292 0 4
138 1 20.4691 8.0315 2.62657 -0.368827 0.122922 -1.90932 1 -7.30376 0.00236314 4
139 1 19.6048 5.3302 3.54355 -2.73106 -0.504848 10.6039 1 -7.32471 0.0747888 4
140 1 17.8339 7.09966 3.55421 1.1748 -0.392344 4.15387 1 -7.33782 0.0116946 4
141 1 1.78286 8.91429 0 0 0 0 1 -3.31557 0 2
142 1 0.902584 9.80849 2.67248 7.15815 -4.62305 -2.0779 1 -7.34504 0.0478829 4
143 1 2.67429 9.80572 0.891429 0 0 0 1 -7.00808 0 4
144 1 3.54667 8.92217 1.76241 3.34891 -4.36435 3.02049 1 -7.3563 0.024515 4
145 1 0 10.6971 0 0 0 0 1 -3.33929 0 2
146 1 1.74056 10.6923 1.81959 0.904352 -1.36028 8.10376 1 -7.3703 0.042536 4
147 1 1.78286 12.48 0 0 0 0 1 -3.33575 0 2
148 1 0.891429 11.5886 0.891429 0 0 0 1 -7.02093 0 4
149 1 2.58835 11.5878 2.69384 -4.97075 -1.79963 -1.75701 1 -7.24694 0.0193165 4
150 1 3.56572 10.6971 0 0 0 0 1 -3.36037 0 2
151 1 3.5789 12.4784 1.80435 2.57362 2.33757 -0.117351 1 -7.34819 0.00753228 4
152 1 1.80178 8.93666 3.57944 13.5422 0.806675 5.00121 1 -7.32731 0.13012 4
153 1 1.73535 12.4821 3.65332 0.688357 -0.767542 0.603954 1 -7.35787 0.000888648 4
154 1 3.5331 10.7072 3.5719 1.2986 -4.87249 -2.55141 1 -7.28835 0.0198786 4
205 1 0.021523 8.88733 1.77539 7.79864 -5.71945 -1.6322 1 -7.35579 0.0598743 4
204 1 0.0274687 12.5029 1.75508 12.8013 -1.76385 -1.01066 1 -7.31404 0.104571 4
155 1 5.34857 8.91429 0 0 0 0 1 -3.32162 0 2
156 1 4.46525 9.82122 2.65434 2.41671 -3.58599 4.69409 1 -7.333 0.0253541 4
157 1 6.24 9.80572 0.891429 0 0 0 1 -7.00006 0 4
158 1 7.10735 8.89442 1.76624 3.46102 2.75448 -7.56922 1 -7.32164 0.047839 4
159 1 7.97938 9.78152 2.69652 -1.13 1.45019 8.06452 1 -7.34106 0.0425842 4
160 1 5.33777 10.7303 1.81113 1.79518 -5.99093 4.03148 1 -7.32075 0.0344617 4
161 1 5.34857 12.48 0 0 0 0 1 -3.335 0 2
162 1 4.45714 11.5886 0.891429 0 0 0 1 -7.03189 0 4
163 1 6.20553 11.595 2.76366 0.765752 0.193702 -0.2018 1 -7.34523 0.000413677 4
164 1 7.13143 10.6971 0 0 0 0 1 -3.32827 0 2
165 1 7.07252 12.4704 1.80185 2.58143 -0.772102 -0.523541 1 -7.25232 0.00468938 4
166 1 8.02286 11.5886 0.891429 0 0 0 1 -7.018 0 4
167 1 5.33528 8.9511 3.56505 1.91611 -13.0807 -0.725574 1 -7.29513 0.109114 4
168 1 5.356 12.5142 3.60799 -6.02543 3.58303 3.84054 1 -7.35549 0.0397691 4
169 1 7.16732 10.7002 3.56325 4.16498 1.79317 0.0923257 1 -7.33091 0.012804 4
170 1 8.91429 8.91429 0 0 0 0 1 -3.33546 0 2
171 1 9.80572 9.80572 0.891429 0 0 0 1 -6.97985 0 4
172 1 10.6954 8.94031 1.78576 -6.75259 2.68168 -4.45371 1 -7.34639 0.0452033 4
173 1 12.48 8.91429 0 0 0 0 1 -3.33575 0 2
174 1 11.6105 9.78414 2.68542 -2.96758 2.5979 3.52722 1 -7.30894 0.017426 4
175 1 8.86916 10.7388 1.78173 -4.07851 -1.94089 0.444696 1 -7.29583 0.0128214 4
176 1 8.91429 12.48 0 0 0 0 1 -3.32854 0 2
177 1 9.81159 11.5747 2.63194 3.99702 1.78935 3.41184 1 -7.3948 0.0191823 4
178 1 10.6971 10.6971 0 0 0 0 1 -3.324 0 2
179 1 10.7066 12.4432 1.81356 0.905339 0.530645 5.29231 1 -7.32447 0.0181187 4
180 1 12.4834 10.6718 1.78941 -1.5541 -4.3107 -2.13522 1 -7.32938 0.0159071 4
181 1 12.48 12.48 0 0 0 0 1 -3.34411 0 2
182 1 11.5886 11.5886 0.891429 0 0 0 1 -7.00129 0 4
183 1 8.89937 8.8797 3.57275 7.16128 -2.49701 6.33181 1 -7.35912 0.0607555 4
184 1 12.4935 8.87591 3.62591 2.87352 3.61106 1.86298 1 -7.33555 0.015416 4
185 1 8.9535 12.4733 3.57386 -0.0838784 5.59324 -2.12518 1 -7.27204 0.0222877 4
186 1 10.6808 10.708 3.55726 1.35357 -7.29682 0.317405 1 -7.27884 0.0343433 4
187 1 12.4355 12.4774 3.54683 -4.45549 2.39925 -2.0916 1 -7.41629 0.0186619 4
188 1 13.3714 9.80572 0.891429 0 0 0 1 -7.05079 0 4
189 1 14.282 8.93986 1.7708 2.74527 10.8891 -5.18021 1 -7.34101 0.0951963 4
190 1 16.0457 8.91429 0 0 0 0 1 -3.3202 0 2
191 1 15.1795 9.7923 2.65528 -3.52611 2.23057 -0.66439 1 -7.25918 0.0111105 4
192 1 16.9371 9.80572 0.891429 0 0 0 1 -6.98868 0 4
193 1 13.3384 11.6056 2.66542 -1.42545 -3.77456 2.21564 1 -7.38054 0.0131882 4
194 1 14.2629 10.6971 0 0 0 0 1 -3.34409 0 2
195 1 14.2582 12.4614 1.7849 -3.64275 -4.06601 -10.3493 1 -7.40494 0.0852161 4
196 1 16.0869 10.7554 1.77152 -5.5796 0.720846 -2.89725 1 -7.31677 0.0249254 4
197 1 16.0457 12.48 0 0 0 0 1 -3.31453 0 2
198 1 15.1543 11.5886 0.891429 0 0 0 1 -7.02201 0 4
199 1 16.9728 11.6245 2.63425 -2.12024 2.68859 -4.34112 1 -7.3279 0.0190271 4
200 1 16.0574 8.91123 3.51377 1.99269 -2.68381 -3.13303 1 -7.3709 0.0130644 4
201 1 14.2183 10.695 3.53778 4.10377 -8.39557 -3.02249 1 -7.29901 0.0600404 4
202 1 16.0733 12.463 3.57639 1.11441 -5.93888 -0.682381 1 -7.38216 0.023016 4
203 1 21.3673 10.6884 3.59797 -0.591692 0.19772 -4.09125 1 -7.32199 0.0106606 4
206 1 17.8154 8.90096 1.78841 4.81157 0.735689 -9.63996 1 -7.36501 0.0725881 4
207 1 19.6114 8.91429 0 0 0 0 1 -3.34947 0 2
208 1 18.7006 9.78778 2.66733 -11.1129 -1.6426 1.11905 1 -7.35238 0.0793267 4
209 1 20.5029 9.80572 0.891429 0 0 0 1 -6.98244 0 4
210 1 17.8286 10.6971 0 0 0 0 1 -3.3176 0 2
211 1 17.8251 12.4865 1.78486 6.25918 7.50149 -5.24424 1 -7.3712 0.0765283 4
212 1 19.6166 10.6858 1.79756 1.22446 -0.876519 -13.1238 1 -7.34599 0.108615 4
213 1 19.6114 12.48 0 0 0 0 1 -3.3411 0 2
214 1 18.72 11.5886 0.891429 0 0 0 1 -6.99391 0 4
215 1 20.5035 11.5986 2.70106 -3.14098 -1.3686 -6.95635 1 -7.29946 0.0374263 4
216 1 19.5493 8.87662 3.57084 1.66402 -0.243611 -5.78194 1 -7.28284 0.0225686 4
217 1 17.8853 10.6938 3.55501 -3.41296 3.65066 -3.59909 1 -7.3004 0.0236081 4
218 1 19.5771 12.5004 3.56204 1.10123 -0.0691168 1.14326 1 -7.3497 0.00157133 4
219 1 0.899361 13.3875 2.6756 -3.07773 1.46333 -4.68349 1 -7.32626 0.0208817 4
220 1 2.67429 13.3714 0.891429 0 0 0 1 -6.9944 0 4
221 1 0 14.2629 0 0 0 0 1 -3.31099 0 2
222 1 1.78312 14.256 1.76239 4.47322 -4.05146 -1.2974 1 -7.37415 0.0237189 4
223 1 1.78286 16.0457 0 0 0 0 1 -3.31527 0 2
224 1 0.891429 15.1543 0.891429 0 0 0 1 -7.04826 0 4
225 1 0.88337 16.9092 2.64485 -3.49082 -3.0671 3.28328 1 -7.32081 0.0201497 4
226 1 2.68176 15.1358 2.67154 -1.73839 2.05719 4.00011 1 -7.30359 0.0144745 4
227 1 2.67429 16.9371 0.891429 0 0 0 1 -7.00159 0 4
228 1 3.56572 14.2629 0 0 0 0 1 -3.33614 0 2
229 1 3.5437 16.0254 1.77438 -2.99309 -3.92608 -8.03489 1 -7.36092 0.0553538 4
230 1 1.77501 15.9967 3.57097 4.03918 -0.382333 -4.35611 1 -7.30375 0.0220568 4
231 1 3.58976 14.2353 3.61747 -1.27152 2.42785 2.5465 1 -7.30517 0.0087114 4
233 1 0.00165081 16.0259 1.74474 5.61077 3.34795 0.886365 1 -7.34091 0.0270601 4
234 1 4.43528 13.3534 2.69411 -2.30104 9.7652 2.04575 1 -7.34216 0.0652545 4
235 1 6.24 13.3714 0.891429 0 0 0 1 -6.95593 0 4
236 1 7.96253 13.3599 2.69673 -1.31139 8.36327 4.32143 1 -7.28577 0.0562292 4
237 1 5.32953 14.3086 1.8175 9.26912 2.01541 -6.67535 1 -7.24946 0.0837404 4
238 1 5.34857 16.0457 0 0 0 0 1 -3.35907 0 2
239 1 4.45714 15.1543 0.891429 0 0 0 1 -7.01984 0 4
240 1 4.46173 16.9513 2.64899 -0.227847 3.92591 -3.93788 1 -7.35531 0.0192775 4
241 1 6.28788 15.1672 2.71275 3.41674 -1.48341 9.8281 1 -7.30876 0.0687571 4
242 1 6.24 16.9371 0.891429 0 0 0 1 -7.02323 0 4
243 1 7.13143 14.2629 0 0 0 0 1 -3.33524 0 2
244 1 7.16505 16.0617 1.78069 -3.33229 1.47376 -4.0419 1 -7.36901 0.018432 4
245 1 8.02286 15.1543 0.891429 0 0 0 1 -7.00415 0 4
246 1 7.99298 16.9423 2.69061 5.44804 -1.52896 -0.777746 1 -7.3312 0.0203059 4
247 1 5.3572 16.0469 3.5607 7.05553 7.21068 -2.98713 1 -7.2969 0.0689009 4
248 1 7.07612 14.2589 3.59487 -0.307536 2.12857 4.64501 1 -7.39442 0.0163085 4
249 1 9.80572 13.3714 0.891429 0 0 0 1 -6.9782 0 4
250 1 11.5528 13.3745 2.68894 4.25413 -6.18269 6.82897 1 -7.31573 0.0640839 4
251 1 8.87105 14.2066 1.78309 -0.932916 1.95485 -2.82924 1 -7.34117 0.00790254 4
252 1 8.91429 16.0457 0 0 0 0 1 -3.34261 0 2
253 1 9.73145 15.1223 2.66411 -3.8721 -1.48144 9.78676 1 -7.29016 0.0703145 4
254 1 9.80572 16.9371 0.891429 0 0 0 1 -7.03245 0 4
255 1 10.6971 14.2629 0 0 0 0 1 -3.36385 0 2
256 1 10.6919 16.06 1.78142 -9.40072 -0.691429 -2.14305 1 -7.24406 0.0581622 4
257 1 12.4695 14.3012 1.77241 -0.125521 1.38086 5.47583 1 -7.2835 0.0198599 4
258 1 12.48 16.0457 0 0 0 0 1 -3.32208 0 2
259 1 11.5886 15.1543 0.891429 0 0 0 1 -7.01067 0 4
260 1 11.6204 16.9635 2.68299 -3.16904 -3.60347 1.62816 1 -7.3057 0.0159831 4
261 1 8.88247 16.0443 3.57592 -8.04881 0.383645 -9.34105 1 -7.32951 0.0947243 4
262 1 10.6398 14.2765 3.56581 -6.64337 -3.30939 2.48679 1 -7.30347 0.0381364 4
263 1 12.4461 16.0384 3.55263 0.47193 2.49075 -7.19233 1 -7.36578 0.0361979 4
264 1 13.3714 13.3714 0.891429 0 0 0 1 -6.98613 0 4
265 1 15.1372 13.3187 2.65595 -3.54115 5.99707 0.675475 1 -7.30143 0.0304746 4
266 1 16.9371 13.3714 0.891429 0 0 0 1 -6.9911 0 4
267 1 13.405 15.1964 2.65632 9.00028 -7.25516 -5.27988 1 -7.30055 0.100534 4
268 1 13.3714 16.9371 0.891429 0 0 0 1 -7.0243 0 4
269 1 14.2629 14.2629 0 0 0 0 1 -3.32053 0 2
270 1 14.2694 16.0294 1.744 -6.58993 -0.471916 4.91282 1 -7.40775 0.0421916 4
271 1 16.0132 14.2616 1.79523 -4.77609 -2.97728 1.89457 1 -7.34785 0.0219496 4
272 1 16.0457 16.0457 0 0 0 0 1 -3.3486 0 2
273 1 15.1543 15.1543 0.891429 0 0 0 1 -7.03348 0 4
274 1 15.1569 16.9398 2.62942 -0.5076 -4.22273 10.5937 1 -7.2578 0.081112 4
275 1 16.9103 15.1758 2.67352 -3.42129 5.49358 1.62818 1 -7.30847 0.0277201 4
276 1 16.9371 16.9371 0.891429 0 0 0 1 -7.03534 0 4
277 1 14.236 14.2497 3.57103 2.79651 -6.66073 -6.97551 1 -7.30399 0.0627677 4
278 1 16.022 16.0875 3.60942 -5.65131 1.22727 -2.30752 1 -7.30006 0.0241303 4
232 1 21.3895 14.2581 3.55898 4.89534 6.2375 -2.53898 1 -7.33673 0.0431448 4
279 1 18.7152 13.3743 2.66126 5.41841 2.12811 -7.84781 1 -7.37449 0.0594268 4
280 1 20.5029 13.3714 0.891429 0 0 0 1 -7.04308 0 4
281 1 17.8286 14.2629 0 0 0 0 1 -3.33105 0 2
282 1 17.7939 16.059 1.77846 6.4824 6.64754 3.22445 1 -7.35932 0.0601316 4
283 1 19.6201 14.2527 1.77886 9.98928 1.18524 -2.39116 1 -7.3723 0.0665425 4
284 1 19.6114 16.0457 0 0 0 0 1 -3.3174 0 2
285 1 18.72 15.1543 0.891429 0 0 0 1 -6.99261 0 4
286 1 18.6948 16.9191 2.69293 -5.01203 12.1916 0.656277 1 -7.33171 0.108418 4
287 1 20.4684 15.1541 2.68628 8.1956 14.1239 1.65777 1 -7.37188 0.167681 4
288 1 20.5029 16.9371 0.891429 0 0 0 1 -7.04788 0 4
289 1 17.8191 14.2938 3.56235 -1.15607 0.63992 0.288511 1 -7.35029 0.00113857 4
290 1 19.6119 16.0272 3.56561 -0.0972925 -0.545557 -3.41964 1 -7.34563 0.00746977 4
293 1 0 17.8286 0 0 0 0 1 -3.33918 0 2
294 1 1.75191 17.8243 1.77787 -1.0328 5.16645 -4.70753 1 -7.32754 0.0310713 4
295 1 1.78286 19.6114 0 0 0 0 1 -3.33904 0 2
296 1 0.891429 18.72 0.891429 0 0 0 1 -7.03022 0 4
297 1 0.883017 20.482 2.66154 -0.513724 -2.03599 1.87469 1 -7.35794 0.00493187 4
298 1 2.65711 18.7166 2.69394 5.11177 4.18829 -2.66064 1 -7.32034 0.0315887 4
299 1 2.67429 20.5029 0.891429 0 0 0 1 -7.03896 0 4
300 1 3.56572 17.8286 0 0 0 0 1 -3.33738 0 2
301 1 3.51312 19.6198 1.76958 0.232294 7.76294 9.44302 1 -7.30859 0.0930451 4
302 1 1.76466 19.6017 3.60013 1.18005 3.71701 4.02309 1 -7.33568 0.0195404 4
303 1 3.60713 17.8046 3.52722 -4.5372 -2.60156 -1.14782 1 -7.32782 0.0178461 4
305 1 0.00260665 19.615 1.79221 -6.06902 7.08781 -6.5595 1 -7.36786 0.0809758 4
304 1 0.014203 17.8551 3.55211 -5.07858 2.61585 -3.4487 1 -7.28803 0.0277155 4
350 1 0.0266894 21.3909 3.56971 -5.26814 1.2951 15.6233 1 -7.33216 0.170245 4
307 1 5.3741 17.8388 1.79097 4.66327 -5.41491 0.131668 1 -7.41433 0.0317964 4
308 1 5.34857 19.6114 0 0 0 0 1 -3.34316 0 2
309 1 4.45714 18.72 0.891429 0 0 0 1 -6.971 0 4
310 1 4.4596 20.4985 2.67128 -7.04238 5.62987 1.15197 1 -7.28048 0.0514233 4
311 1 6.22031 18.7056 2.67009 -7.50732 7.19835 4.7187 1 -7.36599 0.0811907 4
312 1 6.24 20.5029 0.891429 0 0 0 1 -6.97965 0 4
313 1 7.13143 17.8286 0 0 0 0 1 -3.32344 0 2
314 1 7.14221 19.6294 1.7987 2.03001 2.20236 -5.61379 1 -7.33646 0.0251995 4
315 1 8.02286 18.72 0.891429 0 0 0 1 -6.99357 0 4
316 1 7.99153 20.5426 2.70415 5.30408 7.71097 2.88555 1 -7.39953 0.0597024 4
317 1 5.33869 19.6061 3.57516 -1.49873 4.60859 2.87438 1 -7.36013 0.0197604 4
318 1 7.14098 17.8776 3.57584 -0.43124 -3.11091 -1.86311 1 -7.35332 0.00830002 4
322 1 8.91303 17.8206 1.78173 -9.21787 -2.19103 -3.9482 1 -7.29776 0.0655776 4
323 1 8.91429 19.6114 0 0 0 0 1 -3.32915 0 2
324 1 9.77294 18.7624 2.67201 7.14254 4.4692 -3.26624 1 -7.35792 0.050826 4
325 1 9.80572 20.5029 0.891429 0 0 0 1 -6.9789 0 4
326 1 10.6971 17.8286 0 0 0 0 1 -3.32595 0 2
327 1 10.6672 19.622 1.75762 -1.35799 -0.101198 -3.15566 1 -7.40616 0.00735245 4
328 1 12.496 17.8215 1.77561 -2.54215 4.19784 -6.13694 1 -7.41057 0.0384325 4
329 1 12.48 19.6114 0 0 0 0 1 -3.33688 0 2
330 1 11.5886 18.72 0.891429 0 0 0 1 -7.03423 0 4
331 1 11.5377 20.5144 2.66673 -3.38259 0.356503 0.855792 1 -7.28861 0.00765672 4
332 1 8.91629 19.6446 3.57789 -1.65588 0.152419 2.90499 1 -7.39962 0.00697374 4
333 1 10.6154 17.817 3.54838 -0.727781 1.28421 1.72291 1 -7.31235 0.0032038 4
334 1 12.4849 19.65 3.58158 6.55389 -5.82469 -4.71217 1 -7.27554 0.0616732 4
335 1 16.0508 21.3831 1.76161 0.0290455 0.103287 2.72137 1 -7.34828 0.00461675 4
336 1 14.2685 21.3546 3.60669 6.09869 4.02878 -5.18013 1 -7.41467 0.0499551 4
337 1 13.4047 18.7157 2.67402 1.61408 6.43454 0.880616 1 -7.26788 0.0278748 4
338 1 13.3714 20.5029 0.891429 0 0 0 1 -6.99114 0 4
339 1 14.2629 17.8286 0 0 0 0 1 -3.33593 0 2
340 1 14.2768 19.6286 1.76578 -3.73433 -2.25892 -3.88411 1 -7.36236 0.021246 4
341 1 16.0888 17.8329 1.76297 -4.58991 -1.99561 0.829426 1 -7.36618 0.0160198 4
342 1 16.0457 19.6114 0 0 0 0 1 -3.31992 0 2
343 1 15.1543 18.72 0.891429 0 0 0 1 -6.99842 0 4
344 1 15.1695 20.5311 2.67967 -4.41977 4.6691 7.33094 1 -7.32779 0.0591787 4
345 1 16.982 18.7356 2.68159 2.08058 2.99356 3.78252 1 -7.36454 0.0171776 4
346 1 16.9371 20.5029 0.891429 0 0 0 1 -7.03499 0 4
347 1 14.2578 17.8149 3.58244 0.265794 2.32924 -0.0100127 1 -7.30228 0.00342091 4
348 1 16.0861 19.6522 3.56759 7.09825 2.34387 6.33629 1 -7.35542 0.05977 4
351 1 17.8286 17.8286 0 0 0 0 1 -3.32725 0 2
352 1 17.8363 19.6342 1.81925 -6.83805 -0.187555 1.09669 1 -7.32629 0.0298745 4
353 1 19.6105 17.7805 1.77954 -1.40185 5.43227 2.60775 1 -7.33417 0.0238234 4
354 1 19.6114 19.6114 0 0 0 0 1 -3.34266 0 2
355 1 18.72 18.72 0.891429 0 0 0 1 -6.94558 0 4
356 1 18.7354 20.5064 2.71108 1.14858 -6.34918 6.17095 1 -7.32024 0.0496148 4
357 1 20.4476 18.735 2.65988 -4.17804 3.00294 1.72824 1 -7.29903 0.018337 4
358 1 20.5029 20.5029 0.891429 0 0 0 1 -7.01272 0 4
359 1 17.8311 17.8685 3.53902 1.12791 4.18849 -5.77822 1 -7.38289 0.0324928 4
360 1 19.5994 19.6157 3.57662 -8.78411 0.818993 -5.85718 1 -7.34515 0.0697975 4
361 1 0.896591 0.899252 4.4864 -1.16864 -0.0972156 4.63449 1 -7.3749 0.0142247 4
362 1 0.924305 2.69198 6.2836 13.4516 -6.17969 4.45671 1 -7.32608 0.148758 4
363 1 2.68469 0.873739 6.22934 3.69811 2.65996 4.92706 1 -7.2876 0.0280262 4
364 1 2.69333 2.69356 4.47626 -3.56946 -3.54352 5.35612 1 -7.36283 0.033602 4
365 1 3.54498 1.86888 5.32611 3.08785 -8.4638 -10.3754 1 -7.29075 0.117527 4
366 1 1.79201 3.61192 5.34852 4.42494 -12.2543 4.18067 1 -7.33499 0.116535 4
367 1 1.8078 1.79271 7.15377 -2.16087 0.118131 3.76903 1 -7.28355 0.0117569 4
368 1 0.939931 0.866087 8.07272 -5.59547 -0.215135 0.663957 1 -7.2995 0.0197909 4
369 1 2.64563 2.72832 8.02025 6.95867 9.27724 3.67401 1 -7.33942 0.0921121 4
370 1 3.57919 3.59584 7.10788 10.0596 -1.37058 -3.44203 1 -7.38901 0.0715299 4
411 1 0.0436681 1.77561 5.41809 1.75442 7.91108 4.31265 1 -7.34426 0.052447 4
371 1 0.0196683 3.56123 7.17485 -1.6113 0.670969 -3.06819 1 -7.27796 0.00775562 4
372 1 4.44666 0.911322 4.49702 0.0561459 6.91898 0.918623 1 -7.21311 0.0303242 4
373 1 4.43855 2.7087 6.24796 -2.32845 -4.11311 0.653634 1 -7.41704 0.0141705 4
374 1 6.2498 0.936523 6.26904 8.00342 -4.93745 -1.50957 1 -7.36702 0.0564615 4
375 1 6.2521 2.71646 4.46862 -5.50438 -2.94542 1.70541 1 -7.27201 0.0260686 4
376 1 7.16703 1.79828 5.37428 0.584026 -5.73199 -4.96631 1 -7.36002 0.0360142 4
377 1 7.97349 0.895564 4.47383 -1.34647 -5.24187 -8.42936 1 -7.27038 0.062457 4
378 1 8.05995 2.67806 6.23406 -6.54346 0.745442 -0.339055 1 -7.36952 0.0270678 4
379 1 5.35652 3.56812 5.36059 1.54028 1.96747 -0.0683497 1 -7.31769 0.00388896 4
380 1 5.35646 1.84117 7.12652 -2.81126 -0.850447 3.84142 1 -7.33693 0.0145541 4
381 1 4.45711 0.91616 8.03778 0.968038 -2.40865 -0.240711 1 -7.34644 0.00423041 4
382 1 6.29666 2.66785 8.04338 2.23467 11.0402 -5.72241 1 -7.32001 0.0993557 4
383 1 8.05284 0.876096 8.03976 14.1524 1.46385 1.91903 1 -7.39806 0.128292 4
384 1 7.20617 3.56769 7.15371 -4.24629 -3.59071 2.19293 1 -7.32737 0.0222412 4
665 1 7.13218 0.0264672 7.18059 3.93142 -3.31481 -1.00507 1 -7.31502 0.0170882 4
385 1 5.35987 0.0465249 5.4282 0.564682 0.0247497 4.71545 1 -7.38827 0.0140388 4
386 1 9.8154 0.872408 6.24879 -2.52097 -2.0969 12.3901 1 -7.38458 0.102243 4
387 1 9.85696 2.6945 4.49661 0.169573 1.25798 -0.864305 1 -7.36068 0.00146786 4
388 1 10.7259 1.79385 5.38741 -4.44931 0.389618 5.18998 1 -7.33327 0.0291818 4
389 1 11.5992 0.907476 4.4557 -2.07051 -2.14619 8.29944 1 -7.32432 0.0484085 4
390 1 11.5922 2.65414 6.26716 1.16511 -2.87265 -1.08871 1 -7.32154 0.00671903 4
391 1 8.95193 3.58146 5.3987 4.10726 8.40974 -7.17925 1 -7.37203 0.0866012 4
392 1 12.4187 3.56949 5.37043 -1.9895 0.855674 -0.360676 1 -7.27696 0.00300033 4
393 1 8.92795 1.75957 7.16326 5.27225 -1.35235 8.47171 1 -7.33817 0.0631112 4
394 1 9.79257 2.65438 8.01419 4.2599 4.21761 1.59105 1 -7.23428 0.0239425 4
395 1 12.4655 1.72677 7.18324 -0.122718 -5.46109 1.90508 1 -7.33275 0.0208313 4
396 1 11.5865 0.850733 8.08705 -0.384496 6.12058 -3.72729 1 -7.3764 0.0320562 4
397 1 10.6966 3.59768 7.14016 -2.85715 1.82759 -6.42141 1 -7.30489 0.0328255 4
680 1 12.489 0.00929809 5.40235 -0.933948 -1.11727 0.560814 1 -7.31728 0.00151565 4
679 1 8.92156 0.0228557 5.36916 1.05509 5.64248 -3.13505 1 -7.35581 0.026627 4
398 1 13.3714 0.874356 6.28912 -0.1884 -6.06802 -5.72802 1 -7.37066 0.0433623 4
399 1 13.3843 2.65711 4.50286 -2.80615 2.45769 0.589268 1 -7.25928 0.00887703 4
400 1 14.2579 1.78744 5.40991 -1.44961 -0.818478 4.8351 1 -7.36977 0.0162761 4
401 1 15.1408 0.865825 4.48384 7.07786 -0.45274 0.17538 1 -7.33642 0.0313279 4
402 1 15.176 2.68995 6.26299 -5.24409 -2.62033 -1.21099 1 -7.30666 0.0223034 4
403 1 16.9286 0.968377 6.26014 6.00368 0.327077 1.53932 1 -7.26725 0.0239763 4
404 1 16.9458 2.64066 4.51832 -2.94208 8.00556 1.69812 1 -7.27807 0.0470731 4
405 1 16.0444 3.57188 5.38303 -2.80117 -4.26229 6.65319 1 -7.31162 0.0437432 4
406 1 13.3464 2.68313 8.00658 0.562552 0.271168 -0.0296428 1 -7.28043 0.000243291 4
407 1 16.0147 1.85116 7.16328 -0.172151 8.28121 4.817 1 -7.35786 0.0571459 4
408 1 15.1377 0.906602 8.05815 -0.590589 -0.38046 -2.78643 1 -7.29252 0.00513982 4
409 1 16.9026 2.64262 8.06654 8.22333 -5.79666 5.79145 1 -7.3065 0.0838814 4
410 1 14.1686 3.57803 7.13 5.29704 2.81385 -4.00445 1 -7.32338 0.0323737 4
694 1 16.0392 0.0181046 5.35813 3.65741 -0.173553 5.19014 1 -7.34204 0.0251113 4
412 1 17.8498 1.79007 5.43215 2.82582 0.998939 5.38728 1 -7.32324 0.0236559 4
413 1 18.7178 0.878439 4.53529 -0.0780201 -2.03069 -2.8959 1 -7.40369 0.00779032 4
414 1 18.7443 2.72446 6.27762 2.16678 3.91808 -4.22455 1 -7.39059 0.0235857 4
415 1 20.5025 0.881981 6.26694 6.20396 -3.58285 2.04754 1 -7.29248 0.0345561 4
416 1 20.503 2.66407 4.51243 -6.24524 0.0956319 4.22457 1 -7.29962 0.0353907 4
417 1 19.6328 3.59706 5.37348 -1.95351 3.29111 -5.00546 1 -7.38198 0.0247117 4
418 1 19.6203 1.82804 7.18632 0.703331 2.06137 4.94154 1 -7.29352 0.0181516 4
419 1 18.7018 0.87422 8.05854 1.93445 -2.48617 5.39324 1 -7.29487 0.0242809 4
420 1 20.5194 2.67173 8.07278 4.34601 3.19217 3.16547 1 -7.36368 0.0243356 4
421 1 17.8134 3.59513 7.15232 -2.41724 -1.64471 2.51774 1 -7.28908 0.00926614 4
709 1 17.8169 0.0135398 7.13648 -17.4679 5.78782 -0.965487 1 -7.35689 0.21135 4
422 1 19.5684 0.0268545 5.38067 2.96842 3.32214 0.182729 1 -7.30496 0.0123748 4
423 1 0.92649 4.48176 4.45508 3.64478 6.5778 -2.52935 1 -7.38785 0.0391814 4
424 1 0.906844 6.26717 6.25391 -5.83261 3.53757 10.4492 1 -7.37039 0.0969233 4
425 1 2.67155 4.47385 6.26558 8.50351 6.38286 0.923981 1 -7.34169 0.070897 4
426 1 2.68397 6.30422 4.4767 -6.20686 1.47002 12.1707 1 -7.38054 0.117521 4
427 1 3.55772 5.36543 5.3393 -3.27243 -2.09091 1.70042 1 -7.24243 0.0111863 4
428 1 1.79782 7.17717 5.37441 -0.276493 -8.37939 -6.9169 1 -7.38629 0.0735298 4
429 1 0.893095 8.06246 4.50626 1.73531 2.06934 0.660843 1 -7.35263 0.00481146 4
430 1 2.68491 8.01331 6.22134 4.45487 9.2693 0.199718 1 -7.37579 0.0658563 4
431 1 1.8216 5.37196 7.14599 -3.23483 2.07586 5.30182 1 -7.37808 0.0266913 4