ITEM: TIMESTEP
49125275
ITEM: NUMBER OF ATOMS
3060
ITEM: BOX BOUNDS pp pp mm
0.0000000000000000e+00 2.1394294200000001e+01
0.0000000000000000e+00 2.1394294200000001e+01
-5.3491084073550004e-03 5.3485735499999997e+01
ITEM: ATOMS id type x y z vx vy vz c_clusts c_atom_pe c_atom_ke c_atom_coord
1 1 0 0 0 0 0 0 1 -3.33635 0 2
2 1 1.78286 1.78286 0 0 0 0 1 -3.34393 0 2
3 1 0.891429 0.891429 0.891429 0 0 0 1 -7.0204 0 4
4 1 0.913304 2.63947 2.69837 4.44515 1.41645 -0.213744 1 -7.32763 0.013576 4
5 1 2.69517 0.89994 2.75107 7.69832 6.33287 1.92516 1 -7.20196 0.064157 4
6 1 2.67429 2.67429 0.891429 0 0 0 1 -6.99891 0 4
7 1 3.56572 0 0 0 0 0 1 -3.33835 0 2
8 1 3.59838 1.81383 1.77784 3.87061 5.1906 7.00093 1 -7.31034 0.0566016 4
9 1 0 3.56572 0 0 0 0 1 -3.35469 0 2
10 1 1.78742 3.60347 1.76842 4.0779 4.49392 -3.0473 1 -7.26953 0.0287005 4
11 1 3.56572 3.56572 0 0 0 0 1 -3.32644 0 2
12 1 1.76426 1.76418 3.6229 -2.39675 2.97888 -8.2736 1 -7.38136 0.0517053 4
13 1 3.52596 3.54781 3.57277 3.26318 -9.56859 -0.818893 1 -7.32065 0.0640332 4
292 1 1.79587 0.00968006 1.77892 5.33631 -0.933388 -3.27153 1 -7.28739 0.0249284 4
56 1 0.0645467 3.56194 3.60029 -6.33955 1.30255 -1.26556 1 -7.24284 0.0270682 4
14 1 5.34857 1.78286 0 0 0 0 1 -3.32954 0 2
15 1 4.45714 0.891429 0.891429 0 0 0 1 -7.00079 0 4
16 1 4.47064 2.72405 2.63832 5.82223 10.406 -1.95187 1 -7.33379 0.0908699 4
17 1 6.2353 0.90966 2.64667 9.33868 -0.933939 -9.46729 1 -7.27561 0.110613 4
18 1 6.24 2.67429 0.891429 0 0 0 1 -7.02083 0 4
19 1 7.13143 0 0 0 0 0 1 -3.35103 0 2
20 1 7.15501 1.7666 1.74996 -4.38882 -1.50078 2.95033 1 -7.34897 0.0188088 4
21 1 8.02286 0.891429 0.891429 0 0 0 1 -7.03762 0 4
22 1 8.07366 2.69911 2.65205 1.61082 -6.49171 -2.4292 1 -7.29722 0.0315185 4
23 1 5.36137 3.57662 1.76356 2.87483 3.91666 -5.47099 1 -7.39501 0.0333226 4
24 1 7.13143 3.56572 0 0 0 0 1 -3.30993 0 2
25 1 5.36161 1.83219 3.55335 -3.72994 -4.10536 9.15898 1 -7.39464 0.0713632 4
26 1 7.15443 3.55981 3.60063 -7.80923 -4.72894 -4.54188 1 -7.23992 0.0647172 4
28 1 8.91429 1.78286 0 0 0 0 1 -3.31663 0 2
29 1 9.83698 0.911767 2.64863 -4.71348 -0.231 4.47402 1 -7.35823 0.0263206 4
30 1 9.80572 2.67429 0.891429 0 0 0 1 -7.05117 0 4
31 1 10.6971 0 0 0 0 0 1 -3.32195 0 2
32 1 10.7095 1.81159 1.76603 4.20147 -1.1984 -3.00879 1 -7.34229 0.0175159 4
33 1 12.48 1.78286 0 0 0 0 1 -3.32065 0 2
34 1 11.5886 0.891429 0.891429 0 0 0 1 -6.97673 0 4
35 1 11.6406 2.66402 2.7025 -4.052 -4.28674 0.52283 1 -7.3025 0.0218274 4
36 1 8.91111 3.56816 1.77447 -9.40648 0.845422 -1.99456 1 -7.3953 0.0579944 4
37 1 10.6971 3.56572 0 0 0 0 1 -3.31197 0 2
38 1 12.4895 3.56039 1.77609 -1.39587 -4.64007 -8.11635 1 -7.32333 0.0556162 4
39 1 8.93286 1.78414 3.56533 0.300038 -6.45015 -3.9707 1 -7.37223 0.0357651 4
40 1 12.5319 1.73397 3.60543 0.455073 -3.09201 3.17358 1 -7.3154 0.0123484 4
41 1 10.7403 3.57231 3.55499 -2.54656 0.779351 -1.71799 1 -7.29956 0.00625154 4
321 1 12.5229 -0.0115705 1.77491 -2.72687 -6.16522 2.57191 1 -7.34876 0.0324038 4
320 1 8.94991 0.0461856 1.75025 5.07978 -4.35949 -5.7043 1 -7.37246 0.0481437 4
319 1 10.6943 0.0138252 3.55387 1.97616 4.43585 -0.18438 1 -7.31453 0.0146992 4
42 1 13.385 0.917372 2.71461 -5.06136 3.51719 -1.77439 1 -7.37946 0.0256044 4
43 1 13.3714 2.67429 0.891429 0 0 0 1 -6.99682 0 4
44 1 14.2629 0 0 0 0 0 1 -3.32708 0 2
45 1 14.2898 1.78889 1.79699 4.4607 9.65192 3.35984 1 -7.35492 0.0773962 4
46 1 16.0457 1.78286 0 0 0 0 1 -3.32507 0 2
47 1 15.1543 0.891429 0.891429 0 0 0 1 -7.04871 0 4
48 1 15.1598 2.67632 2.67634 -2.65349 6.16872 -7.01628 1 -7.3196 0.0587087 4
49 1 16.9975 0.873302 2.67747 -1.46116 6.04707 -3.54904 1 -7.29494 0.031929 4
50 1 16.9371 2.67429 0.891429 0 0 0 1 -7.03115 0 4
51 1 14.2629 3.56572 0 0 0 0 1 -3.32199 0 2
52 1 16.0342 3.56459 1.76982 -6.86268 5.46776 -1.92617 1 -7.37018 0.0502317 4
53 1 16.1207 1.7838 3.58062 6.0543 4.55415 0.551588 1 -7.27406 0.0359134 4
54 1 14.2643 3.53899 3.59702 -9.17778 -5.4644 1.26731 1 -7.39276 0.0720132 4
336 1 14.3044 0.0403188 3.57983 0.157964 5.45575 3.3079 1 -7.3 0.0253529 4
350 1 21.3814 0.0161454 3.6755 1.51253 1.27721 -0.873748 1 -7.34879 0.00291447 4
55 1 21.4001 1.7832 1.79269 4.78153 3.9518 -3.84709 1 -7.3619 0.0331628 4
57 1 17.8286 0 0 0 0 0 1 -3.33956 0 2
58 1 17.8452 1.77611 1.7847 -0.929056 -2.32125 0.280191 1 -7.37729 0.00393986 4
59 1 19.6114 1.78286 0 0 0 0 1 -3.32606 0 2
60 1 18.72 0.891429 0.891429 0 0 0 1 -7.02785 0 4
61 1 18.7327 2.65127 2.669 -11.5932 -1.34077 -2.10996 1 -7.34804 0.0875454 4
62 1 20.5288 0.882878 2.72597 -1.38641 -2.12235 -0.716832 1 -7.30647 0.00431986 4
63 1 20.5029 2.67429 0.891429 0 0 0 1 -7.02036 0 4
64 1 17.8286 3.56572 0 0 0 0 1 -3.3305 0 2
65 1 19.5965 3.5712 1.79016 -7.41035 2.53625 -3.66298 1 -7.38031 0.0465347 4
66 1 19.6208 1.7715 3.58885 3.85014 5.22204 -6.01746 1 -7.34619 0.0487379 4
67 1 17.7954 3.57617 3.56633 -7.63898 2.88094 -5.83019 1 -7.32404 0.0626441 4
68 1 19.6238 0.0193087 1.76133 -2.20862 2.27498 -2.1201 1 -7.3346 0.00905528 4
69 1 1.78286 5.34857 0 0 0 0 1 -3.32948 0 2
70 1 0.891429 4.45714 0.891429 0 0 0 1 -6.99501 0 4
71 1 0.925643 6.31742 2.75613 2.96703 2.18826 -3.02617 1 -7.30779 0.0141599 4
72 1 2.69155 4.54111 2.68246 -2.44453 5.3879 -3.1258 1 -7.26124 0.0278697 4
73 1 2.67429 6.24 0.891429 0 0 0 1 -7.01495 0 4
74 1 3.62268 5.38574 1.76197 -0.926024 -2.37411 -0.553968 1 -7.34586 0.004233 4
75 1 0 7.13143 0 0 0 0 1 -3.3397 0 2
76 1 1.77876 7.13 1.7904 -1.96445 -4.03943 4.3875 1 -7.33748 0.0245399 4
77 1 0.891429 8.02286 0.891429 0 0 0 1 -7.03428 0 4
78 1 2.69643 8.04691 2.67856 -4.42821 -7.78107 3.70635 1 -7.30344 0.0584403 4
79 1 3.56572 7.13143 0 0 0 0 1 -3.30968 0 2
80 1 1.79919 5.42155 3.5818 -5.29718 3.59021 -5.05644 1 -7.38531 0.0414021 4
81 1 3.56483 7.15477 3.6141 -2.59481 0.210075 -4.27389 1 -7.28386 0.0155876 4
128 1 0.00973008 5.39943 1.81702 0.131966 -1.00988 -5.02103 1 -7.23784 0.0163374 4
83 1 5.34857 5.34857 0 0 0 0 1 -3.30162 0 2
84 1 4.45714 4.45714 0.891429 0 0 0 1 -7.04582 0 4
85 1 4.46433 6.23971 2.67965 -2.5211 6.95998 5.31288 1 -7.3073 0.0516763 4
86 1 6.20755 4.42937 2.69021 0.365625 -1.26574 6.19089 1 -7.31129 0.0249362 4
87 1 6.24 6.24 0.891429 0 0 0 1 -7.03783 0 4
88 1 7.111 5.32516 1.7727 -3.13786 -3.35811 1.94402 1 -7.31426 0.0154998 4
89 1 8.02286 4.45714 0.891429 0 0 0 1 -7.02889 0 4
90 1 8.00899 6.18772 2.72649 1.50459 6.01207 -15.4381 1 -7.33431 0.172253 4
91 1 5.36468 7.13545 1.77641 -4.99328 -2.2943 -0.750284 1 -7.35809 0.0191456 4
92 1 4.45714 8.02286 0.891429 0 0 0 1 -7.01163 0 4
93 1 6.25521 8.0485 2.63921 15.0372 2.78566 -2.03394 1 -7.34041 0.148146 4
94 1 7.13143 7.13143 0 0 0 0 1 -3.32843 0 2
95 1 8.02286 8.02286 0.891429 0 0 0 1 -7.0241 0 4
96 1 5.33204 5.34051 3.55043 4.02735 -4.06043 7.35061 1 -7.34013 0.0539881 4
97 1 7.14814 7.09477 3.57427 -3.39875 1.23858 5.04191 1 -7.2994 0.0239675 4
98 1 8.91429 5.34857 0 0 0 0 1 -3.31846 0 2
99 1 9.76999 4.47456 2.67256 3.80083 2.43945 -0.578216 1 -7.36153 0.0129038 4
100 1 9.80572 6.24 0.891429 0 0 0 1 -6.98315 0 4
101 1 10.6635 5.34846 1.75726 3.14676 5.25187 -0.16917 1 -7.33227 0.023349 4
102 1 12.48 5.34857 0 0 0 0 1 -3.32431 0 2
103 1 11.5886 4.45714 0.891429 0 0 0 1 -7.03501 0 4
104 1 11.5997 6.22755 2.64512 -1.27725 -1.77813 2.53189 1 -7.37211 0.0069734 4
105 1 8.85923 7.10275 1.80374 -7.29504 2.70574 -1.63113 1 -7.29529 0.0393368 4
106 1 9.81059 7.98961 2.67748 -3.80228 -1.65596 -3.25716 1 -7.31539 0.0173088 4
107 1 10.6971 7.13143 0 0 0 0 1 -3.33751 0 2
108 1 12.4777 7.1125 1.75449 -1.71832 8.61994 -7.4332 1 -7.39029 0.0824767 4
109 1 11.5886 8.02286 0.891429 0 0 0 1 -7.00485 0 4
110 1 8.94097 5.34169 3.6066 1.55279 -0.304628 -0.989868 1 -7.39504 0.00216841 4
111 1 12.4827 5.35967 3.55634 6.90348 -4.24568 -3.66158 1 -7.28411 0.0492283 4
112 1 10.699 7.09816 3.56573 -1.10902 -5.8164 -0.883485 1 -7.34761 0.0223084 4
113 1 13.4105 4.42265 2.69528 -3.81724 10.9201 1.68698 1 -7.25341 0.0850638 4
114 1 13.3714 6.24 0.891429 0 0 0 1 -7.06723 0 4
115 1 14.2646 5.35724 1.7459 8.85007 -6.48233 0.0529056 1 -7.30829 0.0749072 4
116 1 16.0457 5.34857 0 0 0 0 1 -3.33433 0 2
117 1 15.1543 4.45714 0.891429 0 0 0 1 -7.01651 0 4
118 1 15.1994 6.21264 2.69087 -2.58593 -8.33405 6.00524 1 -7.29202 0.0698401 4
119 1 16.9274 4.44849 2.68709 0.21359 -3.42892 3.42393 1 -7.33577 0.0146434 4
120 1 16.9371 6.24 0.891429 0 0 0 1 -7.02071 0 4
121 1 13.3733 8.03368 2.63185 -0.834441 -4.68993 -8.84547 1 -7.25791 0.062824 4
122 1 14.2629 7.13143 0 0 0 0 1 -3.33743 0 2
123 1 16.0771 7.14851 1.75193 2.7212 -4.50528 -4.58589 1 -7.36318 0.0303326 4
124 1 15.1543 8.02286 0.891429 0 0 0 1 -7.02679 0 4
125 1 16.9228 8.00326 2.62031 1.17778 -4.97642 -3.11685 1 -7.25781 0.0223243 4
126 1 16.0236 5.33243 3.5996 8.23785 4.58145 -7.12191 1 -7.37123 0.0868741 4
127 1 14.3071 7.09351 3.5794 3.32876 -5.63748 -3.27164 1 -7.23886 0.0333406 4
82 1 21.3673 7.164 3.60764 2.766 0.226438 2.48758 1 -7.35378 0.00864555 4
129 1 17.8186 5.34975 1.78853 0.126656 5.75791 -1.59151 1 -7.37363 0.0222222 4
130 1 19.6114 5.34857 0 0 0 0 1 -3.34072 0 2
131 1 18.72 4.45714 0.891429 0 0 0 1 -7.02055 0 4
132 1 18.7202 6.23258 2.68426 -1.15904 0.415675 4.2528 1 -7.31531 0.0122011 4
133 1 20.4953 4.47072 2.69819 0.658711 3.99674 4.21552 1 -7.26682 0.0212736 4
134 1 20.5029 6.24 0.891429 0 0 0 1 -6.98601 0 4
135 1 17.8286 7.13143 0 0 0 0 1 -3.31288 0 2
136 1 19.5607 7.11711 1.7808 -1.79438 -4.98645 5.44984 1 -7.3546 0.0359671 4
137 1 18.72 8.02286 0.891429 0 0 0 1 -7.03662 0 4
138 1 20.4927 8.00909 2.67563 5.33797 -2.64731 6.49906 1 -7.3298 0.0483874 4
139 1 19.6246 5.36999 3.61528 3.09371 4.97512 -3.70194 1 -7.39118 0.0298934 4
140 1 17.8329 7.13566 3.58161 -3.02119 3.01655 -2.95163 1 -7.34422 0.0167677 4
141 1 1.78286 8.91429 0 0 0 0 1 -3.33746 0 2
142 1 0.905808 9.76285 2.70404 -3.2119 0.511368 4.02679 1 -7.31781 0.0166766 4
143 1 2.67429 9.80572 0.891429 0 0 0 1 -7.04752 0 4
144 1 3.54667 8.92217 1.76241 3.34891 -4.36435 3.02049 1 -7.36861 0.024515 4
145 1 0 10.6971 0 0 0 0 1 -3.33348 0 2
146 1 1.78709 10.6954 1.78328 5.29717 0.061533 -10.0832 1 -7.31851 0.0807509 4
147 1 1.78286 12.48 0 0 0 0 1 -3.31987 0 2
148 1 0.891429 11.5886 0.891429 0 0 0 1 -7.03169 0 4
149 1 2.66444 11.5879 2.70228 15.615 0.887419 1.04542 1 -7.38122 0.152935 4
150 1 3.56572 10.6971 0 0 0 0 1 -3.32875 0 2
151 1 3.53854 12.4978 1.79342 -4.55158 1.43683 -0.573681 1 -7.27445 0.0143846 4
152 1 1.83794 8.91862 3.59424 -9.09996 -4.56681 -3.23365 1 -7.35412 0.0710323 4
153 1 1.74727 12.479 3.56339 1.15418 0.226009 -10.9708 1 -7.29149 0.0757757 4
154 1 3.57146 10.6893 3.57662 3.64239 0.279874 7.48325 1 -7.36003 0.0431617 4
205 1 0.021523 8.88733 1.77539 7.79864 -5.71945 -1.6322 1 -7.35037 0.0598743 4
204 1 0.0274687 12.5029 1.75508 12.8013 -1.76385 -1.01066 1 -7.34451 0.104571 4
155 1 5.34857 8.91429 0 0 0 0 1 -3.33274 0 2
156 1 4.44437 9.78339 2.70857 -1.7056 -3.63557 1.88891 1 -7.32208 0.0122583 4
157 1 6.24 9.80572 0.891429 0 0 0 1 -7.02352 0 4
158 1 7.14051 8.92496 1.78005 2.89188 2.90945 8.02107 1 -7.36442 0.0505195 4
159 1 8.04681 9.81257 2.69948 9.4178 3.80838 -4.2359 1 -7.25594 0.0754017 4
160 1 5.36342 10.6599 1.80993 1.21967 -2.84805 -4.2651 1 -7.30662 0.0172973 4
161 1 5.34857 12.48 0 0 0 0 1 -3.35475 0 2
162 1 4.45714 11.5886 0.891429 0 0 0 1 -6.95343 0 4
163 1 6.25331 11.6004 2.67372 4.85791 -0.406551 -9.08101 1 -7.30853 0.0661199 4
164 1 7.13143 10.6971 0 0 0 0 1 -3.34939 0 2
165 1 7.13963 12.4863 1.79854 6.77819 4.25959 -1.49689 1 -7.37499 0.0412847 4
166 1 8.02286 11.5886 0.891429 0 0 0 1 -7.05155 0 4
167 1 5.39336 8.87279 3.56538 4.9409 4.87328 0.637437 1 -7.36126 0.0302298 4
168 1 5.29656 12.4798 3.599 1.96993 -5.17101 -4.58066 1 -7.28035 0.0321187 4
169 1 7.15639 10.7297 3.62641 -5.398 0.770572 5.64692 1 -7.29432 0.0383538 4
170 1 8.91429 8.91429 0 0 0 0 1 -3.3348 0 2
171 1 9.80572 9.80572 0.891429 0 0 0 1 -6.97787 0 4
172 1 10.671 8.89585 1.78878 3.72955 -8.10707 4.27029 1 -7.38662 0.0609165 4
173 1 12.48 8.91429 0 0 0 0 1 -3.33828 0 2
174 1 11.5632 9.79782 2.69781 -4.00348 -2.29222 -4.40157 1 -7.37797 0.0253053 4
175 1 8.86916 10.7388 1.78173 -4.07851 -1.94089 0.444696 1 -7.25383 0.0128214 4
176 1 8.91429 12.48 0 0 0 0 1 -3.34079 0 2
177 1 9.80327 11.6007 2.7267 -5.37822 1.87807 6.52509 1 -7.24539 0.0467001 4
178 1 10.6971 10.6971 0 0 0 0 1 -3.3314 0 2
179 1 10.6975 12.5012 1.77877 -2.28528 5.31709 -6.18551 1 -7.32943 0.0446619 4
180 1 12.4565 10.6772 1.77255 -3.31797 3.66471 0.757788 1 -7.36803 0.0155689 4
181 1 12.48 12.48 0 0 0 0 1 -3.32058 0 2
182 1 11.5886 11.5886 0.891429 0 0 0 1 -7.03383 0 4
183 1 8.94226 8.88692 3.62845 -0.810959 3.39998 -0.838253 1 -7.29182 0.00804186 4
184 1 12.4707 8.92881 3.57208 -7.08614 -0.0481907 -10.1427 1 -7.32929 0.0952876 4
185 1 8.88357 12.5021 3.5852 -6.39604 -1.17874 6.28933 1 -7.30235 0.0509483 4
186 1 10.6953 10.6337 3.5806 -1.66652 0.597224 3.61624 1 -7.39494 0.0100902 4
187 1 12.4613 12.4645 3.55855 7.36364 -7.40068 2.82958 1 -7.35444 0.0728237 4
188 1 13.3714 9.80572 0.891429 0 0 0 1 -7.01345 0 4
189 1 14.2734 8.94685 1.76065 -3.19014 -8.48793 2.91584 1 -7.38185 0.056469 4
190 1 16.0457 8.91429 0 0 0 0 1 -3.32101 0 2
191 1 15.1625 9.85759 2.64541 2.78097 2.53971 1.07111 1 -7.30456 0.00954254 4
192 1 16.9371 9.80572 0.891429 0 0 0 1 -7.00704 0 4
193 1 13.3479 11.5384 2.66261 3.64551 -4.7004 -1.62222 1 -7.27327 0.0236616 4
194 1 14.2629 10.6971 0 0 0 0 1 -3.32921 0 2
195 1 14.2255 12.4591 1.74262 0.778763 3.54921 6.67614 1 -7.30892 0.0359602 4
196 1 16.0869 10.7554 1.77152 -5.5796 0.720846 -2.89725 1 -7.36806 0.0249254 4
197 1 16.0457 12.48 0 0 0 0 1 -3.32541 0 2
198 1 15.1543 11.5886 0.891429 0 0 0 1 -6.99867 0 4
199 1 16.9569 11.6133 2.66133 -0.63101 -0.219739 3.47267 1 -7.36719 0.00778398 4
200 1 16.0634 8.92754 3.56871 0.438436 4.60714 8.2877 1 -7.27499 0.056083 4
201 1 14.2975 10.6574 3.57478 2.8205 2.87205 8.19722 1 -7.29117 0.0519093 4
202 1 16.0472 12.4757 3.52715 -6.42419 7.70116 -2.89121 1 -7.32338 0.0678053 4
203 1 21.3719 10.6751 3.55094 0.0872278 -2.19146 -3.65124 1 -7.2995 0.0112918 4
206 1 17.8406 8.92969 1.72924 -3.56703 0.715447 3.27741 1 -7.32088 0.0149239 4
207 1 19.6114 8.91429 0 0 0 0 1 -3.31885 0 2
208 1 18.7012 9.80722 2.65075 10.0223 6.22778 -5.87689 1 -7.32001 0.108159 4
209 1 20.5029 9.80572 0.891429 0 0 0 1 -7.01339 0 4
210 1 17.8286 10.6971 0 0 0 0 1 -3.30219 0 2
211 1 17.8775 12.532 1.73662 -0.0312949 -2.78301 1.21363 1 -7.32427 0.00573816 4
212 1 19.5984 10.692 1.72637 -4.0541 2.2928 3.8958 1 -7.35238 0.0229488 4
213 1 19.6114 12.48 0 0 0 0 1 -3.3233 0 2
214 1 18.72 11.5886 0.891429 0 0 0 1 -7.01508 0 4
215 1 20.484 11.5765 2.61833 2.2924 -1.7114 -5.36404 1 -7.29282 0.0230029 4
216 1 19.6414 8.92241 3.51931 5.53675 5.86104 -0.76737 1 -7.34771 0.0408288 4
217 1 17.7947 10.7457 3.53146 -4.82648 1.82697 0.722183 1 -7.36186 0.0169015 4
218 1 19.6358 12.4943 3.55331 5.75312 -0.268416 -4.71795 1 -7.30468 0.0345008 4
219 1 0.87329 13.3793 2.65184 0.62251 -2.14941 0.498482 1 -7.37806 0.00327146 4
220 1 2.67429 13.3714 0.891429 0 0 0 1 -7.03659 0 4
221 1 0 14.2629 0 0 0 0 1 -3.29383 0 2
222 1 1.78312 14.256 1.76239 4.47322 -4.05146 -1.2974 1 -7.35052 0.0237189 4
223 1 1.78286 16.0457 0 0 0 0 1 -3.31968 0 2
224 1 0.891429 15.1543 0.891429 0 0 0 1 -7.04847 0 4
225 1 0.8665 16.9232 2.67964 1.58232 5.72418 -0.808749 1 -7.3371 0.0223601 4
226 1 2.66706 15.1392 2.68865 -0.788042 1.7764 -4.10733 1 -7.37146 0.0128511 4
227 1 2.67429 16.9371 0.891429 0 0 0 1 -7.01173 0 4
228 1 3.56572 14.2629 0 0 0 0 1 -3.34202 0 2
229 1 3.5713 16.0379 1.75718 5.87232 3.83074 6.89677 1 -7.36264 0.0602036 4
230 1 1.79189 16.0503 3.54958 -2.09447 9.03958 0.724225 1 -7.40491 0.0539179 4
231 1 3.53278 14.2956 3.57691 -3.22791 8.015 -5.46695 1 -7.36003 0.0650728 4
233 1 0.00165081 16.0259 1.74474 5.61077 3.34795 0.886365 1 -7.32884 0.0270601 4
232 1 0.0113775 14.2962 3.53461 0.270341 2.04001 0.0831971 1 -7.39842 0.0026401 4
234 1 4.46949 13.4369 2.70847 4.04701 0.523059 -2.00429 1 -7.25558 0.012865 4
235 1 6.24 13.3714 0.891429 0 0 0 1 -7.04878 0 4
236 1 8.00626 13.3866 2.70441 8.44973 -2.74943 -3.69674 1 -7.38306 0.0576511 4
237 1 5.40549 14.2669 1.76776 -0.623854 -5.16979 1.27337 1 -7.34872 0.0178869 4
238 1 5.34857 16.0457 0 0 0 0 1 -3.31907 0 2
239 1 4.45714 15.1543 0.891429 0 0 0 1 -6.99312 0 4
240 1 4.4695 16.9234 2.64232 -0.977158 -4.6733 4.33931 1 -7.31546 0.0259079 4
241 1 6.24787 15.175 2.70316 -3.5853 1.62164 -9.71323 1 -7.29568 0.0683617 4
242 1 6.24 16.9371 0.891429 0 0 0 1 -7.01928 0 4
243 1 7.13143 14.2629 0 0 0 0 1 -3.33565 0 2
244 1 7.16505 16.0617 1.78069 -3.33229 1.47376 -4.0419 1 -7.29781 0.018432 4
245 1 8.02286 15.1543 0.891429 0 0 0 1 -7.04402 0 4
246 1 8.04814 16.9598 2.65585 -1.66668 2.47177 -4.15085 1 -7.38831 0.0162559 4
247 1 5.38165 16.0968 3.55967 -7.83616 -3.3517 3.00952 1 -7.37437 0.0508501 4
248 1 7.14819 14.2577 3.62332 6.55979 0.184529 -1.56069 1 -7.28464 0.0283208 4
249 1 9.80572 13.3714 0.891429 0 0 0 1 -7.02732 0 4
250 1 11.5733 13.3668 2.692 -0.628506 5.72038 -6.1881 1 -7.32644 0.0444476 4
251 1 8.88888 14.2897 1.77928 5.21802 8.04203 3.22455 1 -7.31216 0.063674 4
252 1 8.91429 16.0457 0 0 0 0 1 -3.32966 0 2
253 1 9.77155 15.1545 2.70993 9.23321 4.81804 -4.68801 1 -7.30544 0.0811912 4
254 1 9.80572 16.9371 0.891429 0 0 0 1 -7.02423 0 4
255 1 10.6971 14.2629 0 0 0 0 1 -3.33438 0 2
256 1 10.6919 16.06 1.78142 -9.40072 -0.691429 -2.14305 1 -7.36162 0.0581622 4
257 1 12.4695 14.3012 1.77241 -0.125521 1.38086 5.47583 1 -7.34106 0.0198599 4
258 1 12.48 16.0457 0 0 0 0 1 -3.32208 0 2
259 1 11.5886 15.1543 0.891429 0 0 0 1 -7.05419 0 4
260 1 11.5335 16.9177 2.66196 -3.3479 -0.918427 -3.26794 1 -7.2978 0.0141486 4
261 1 8.85166 16.03 3.54362 9.23363 1.31058 7.51779 1 -7.31615 0.0893148 4
262 1 10.6431 14.2238 3.60624 8.68415 -0.586685 2.58005 1 -7.35299 0.0512975 4
263 1 12.5172 16.0379 3.53421 6.84671 -5.03548 4.63343 1 -7.23541 0.0583227 4
264 1 13.3714 13.3714 0.891429 0 0 0 1 -6.99096 0 4
265 1 15.1419 13.3754 2.67217 4.88326 -2.16496 -3.36476 1 -7.32226 0.0248067 4
266 1 16.9371 13.3714 0.891429 0 0 0 1 -7.0208 0 4
267 1 13.3895 15.1067 2.63485 -8.9361 -2.64776 1.88878 1 -7.34018 0.0562872 4
268 1 13.3714 16.9371 0.891429 0 0 0 1 -7.04849 0 4
269 1 14.2629 14.2629 0 0 0 0 1 -3.32174 0 2
270 1 14.2694 16.0294 1.744 -6.58993 -0.471916 4.91282 1 -7.29432 0.0421916 4
271 1 16.0272 14.2528 1.78438 6.56411 2.73641 -3.21282 1 -7.35752 0.0379043 4
272 1 16.0457 16.0457 0 0 0 0 1 -3.34524 0 2
273 1 15.1543 15.1543 0.891429 0 0 0 1 -7.01286 0 4
274 1 15.1484 16.9326 2.72564 -0.395141 2.58814 -0.970996 1 -7.24149 0.00485334 4
275 1 16.8899 15.1795 2.68844 2.49517 -6.44831 -2.26163 1 -7.36691 0.0329398 4
276 1 16.9371 16.9371 0.891429 0 0 0 1 -7.03552 0 4
277 1 14.2859 14.2308 3.51668 0.82928 3.32242 3.50949 1 -7.3605 0.0149648 4
278 1 16.0301 16.0324 3.55916 6.30268 -6.82929 -1.30003 1 -7.36023 0.0548065 4
279 1 18.7514 13.4193 2.63676 1.472 4.55562 4.34004 1 -7.32859 0.0259902 4
280 1 20.5029 13.3714 0.891429 0 0 0 1 -6.99884 0 4
281 1 17.8286 14.2629 0 0 0 0 1 -3.3175 0 2
282 1 17.7939 16.059 1.77846 6.4824 6.64754 3.22445 1 -7.34394 0.0601316 4
283 1 19.6573 14.2993 1.77333 -2.82893 6.62029 1.27011 1 -7.32486 0.0332651 4
284 1 19.6114 16.0457 0 0 0 0 1 -3.3011 0 2
285 1 18.72 15.1543 0.891429 0 0 0 1 -6.99298 0 4
286 1 18.6958 16.9835 2.64816 3.60439 -4.87289 -5.20687 1 -7.35635 0.0397407 4
287 1 20.5609 15.2081 2.65115 0.489537 -5.65289 -5.49723 1 -7.28057 0.0388483 4
288 1 20.5029 16.9371 0.891429 0 0 0 1 -7.05622 0 4
289 1 17.8097 14.2731 3.54746 0.706857 -3.24107 -2.65749 1 -7.33379 0.011245 4
290 1 19.5772 16.0919 3.55365 -2.27906 7.05692 -0.744878 1 -7.30285 0.0345752 4
291 1 3.6113 21.3848 3.64734 -0.302529 6.06522 3.15902 1 -7.29826 0.0291655 4
293 1 0 17.8286 0 0 0 0 1 -3.32498 0 2
294 1 1.75191 17.8243 1.77787 -1.0328 5.16645 -4.70753 1 -7.35378 0.0310713 4
295 1 1.78286 19.6114 0 0 0 0 1 -3.33577 0 2
296 1 0.891429 18.72 0.891429 0 0 0 1 -7.00407 0 4
297 1 0.884792 20.52 2.71254 -0.966964 7.35187 4.98735 1 -7.22538 0.0497061 4
298 1 2.66884 18.7302 2.65249 -5.36221 -2.05699 -2.7603 1 -7.37726 0.0252728 4
299 1 2.67429 20.5029 0.891429 0 0 0 1 -7.03571 0 4
300 1 3.56572 17.8286 0 0 0 0 1 -3.317 0 2
301 1 3.51312 19.6198 1.76958 0.232294 7.76294 9.44302 1 -7.37166 0.0930451 4
302 1 1.80003 19.6129 3.56432 2.7954 -1.38424 -8.12711 1 -7.35913 0.0471676 4
303 1 3.52328 17.8392 3.55886 -4.80459 6.1638 2.31741 1 -7.36003 0.0413583 4
27 1 5.31365 21.3664 1.78146 -1.96416 -8.07583 4.79835 1 -7.35105 0.0573261 4
306 1 7.12525 21.3714 3.58331 1.89919 2.54294 4.41552 1 -7.26828 0.0184053 4
307 1 5.34401 17.8215 1.76604 -7.35608 5.32788 -1.65242 1 -7.30065 0.0530486 4
308 1 5.34857 19.6114 0 0 0 0 1 -3.32945 0 2
309 1 4.45714 18.72 0.891429 0 0 0 1 -6.99372 0 4
310 1 4.41284 20.5391 2.67831 1.57539 -2.22935 1.05935 1 -7.32985 0.00533671 4
311 1 6.2305 18.789 2.70579 6.44431 2.2859 -1.38902 1 -7.25526 0.0303021 4
312 1 6.24 20.5029 0.891429 0 0 0 1 -7.02415 0 4
313 1 7.13143 17.8286 0 0 0 0 1 -3.32344 0 2
314 1 7.12935 19.6385 1.77299 -1.53845 0.293451 2.66119 1 -7.33993 0.00593476 4
315 1 8.02286 18.72 0.891429 0 0 0 1 -7.01775 0 4
316 1 8.05446 20.5438 2.6751 3.60714 -7.60498 -8.59597 1 -7.27466 0.0900887 4
317 1 5.30783 19.6518 3.59412 -3.83874 1.07276 -0.195491 1 -7.32543 0.00991209 4
318 1 7.12168 17.8324 3.5787 0.0321438 -0.357452 1.77562 1 -7.2946 0.00204257 4
322 1 8.91303 17.8206 1.78173 -9.21787 -2.19103 -3.9482 1 -7.4044 0.0655776 4
323 1 8.91429 19.6114 0 0 0 0 1 -3.33333 0 2
324 1 9.80324 18.7337 2.65248 -2.11264 -6.85393 2.29682 1 -7.32683 0.0353009 4
325 1 9.80572 20.5029 0.891429 0 0 0 1 -7.03487 0 4
326 1 10.6971 17.8286 0 0 0 0 1 -3.32595 0 2
327 1 10.6672 19.622 1.75762 -1.35799 -0.101198 -3.15566 1 -7.34381 0.00735245 4
328 1 12.496 17.8215 1.77561 -2.54215 4.19784 -6.13694 1 -7.30514 0.0384325 4
329 1 12.48 19.6114 0 0 0 0 1 -3.34006 0 2
330 1 11.5886 18.72 0.891429 0 0 0 1 -6.97146 0 4
331 1 11.6126 20.5112 2.66694 12.3505 -2.34997 -1.2302 1 -7.31595 0.0993203 4
332 1 8.90185 19.6566 3.58451 4.22198 0.298528 -2.23857 1 -7.31403 0.0142694 4
333 1 10.6946 17.8436 3.55652 8.25336 0.546775 0.93417 1 -7.30776 0.0431277 4
334 1 12.492 19.5753 3.53564 -3.5044 -2.10841 2.34482 1 -7.30525 0.0138331 4
335 1 16.0508 21.3831 1.76161 0.0290455 0.103287 2.72137 1 -7.30387 0.00461675 4
337 1 13.379 18.7534 2.66538 -3.12177 -5.20493 -3.55076 1 -7.37052 0.0307756 4
338 1 13.3714 20.5029 0.891429 0 0 0 1 -7.04876 0 4
339 1 14.2629 17.8286 0 0 0 0 1 -3.33593 0 2
340 1 14.2768 19.6286 1.76578 -3.73433 -2.25892 -3.88411 1 -7.36534 0.021246 4
341 1 16.0888 17.8329 1.76297 -4.58991 -1.99561 0.829426 1 -7.27238 0.0160198 4
342 1 16.0457 19.6114 0 0 0 0 1 -3.31033 0 2
343 1 15.1543 18.72 0.891429 0 0 0 1 -7.00971 0 4
344 1 15.1692 20.5067 2.70634 5.06822 -5.24492 -3.8235 1 -7.32509 0.0422099 4
345 1 16.9232 18.7566 2.67658 -6.78087 -1.7856 -3.17212 1 -7.31166 0.0368668 4
346 1 16.9371 20.5029 0.891429 0 0 0 1 -7.01793 0 4
347 1 14.2885 17.855 3.55576 2.17158 3.53742 0.111667 1 -7.33114 0.0107316 4
348 1 16.0847 19.6224 3.60061 -7.26216 -5.54621 -0.858181 1 -7.39626 0.0524306 4
349 1 17.8537 21.3407 3.61117 1.97765 1.50519 0.603184 1 -7.35234 0.00407099 4
304 1 21.3426 17.8154 3.54412 -1.15505 -4.8239 3.5553 1 -7.33303 0.0231818 4
305 1 21.3481 19.634 1.75484 2.3687 -4.4514 4.55819 1 -7.3288 0.0287579 4
351 1 17.8286 17.8286 0 0 0 0 1 -3.31793 0 2
352 1 17.8246 19.6201 1.77288 3.87177 -1.32209 -6.31074 1 -7.36883 0.0352069 4
353 1 19.6105 17.7805 1.77954 -1.40185 5.43227 2.60775 1 -7.32824 0.0238234 4
354 1 19.6114 19.6114 0 0 0 0 1 -3.33593 0 2
355 1 18.72 18.72 0.891429 0 0 0 1 -6.98188 0 4
356 1 18.7153 20.5137 2.67899 -3.5122 3.91929 -10.888 1 -7.31728 0.0910268 4
357 1 20.4932 18.7329 2.66752 7.18061 -2.8007 -2.11368 1 -7.33342 0.0397561 4
358 1 20.5029 20.5029 0.891429 0 0 0 1 -7.04682 0 4
359 1 17.8217 17.8376 3.56967 -3.14724 -5.03597 8.53795 1 -7.34321 0.0673233 4
360 1 19.5944 19.6263 3.5626 8.58547 0.100189 5.14956 1 -7.35198 0.0623909 4
361 1 0.894242 0.884108 4.54209 -0.93791 -0.174653 4.41801 1 -7.36632 0.0127156 4
362 1 0.957728 2.66463 6.29314 -8.71707 4.14843 -0.816209 1 -7.38002 0.0584228 4
363 1 2.7028 0.913075 6.28758 1.347 -1.06679 4.39904 1 -7.3344 0.0138826 4
364 1 2.64375 2.67222 4.47734 0.121505 -5.88451 -2.71066 1 -7.30565 0.0261356 4
365 1 3.59616 1.73944 5.361 1.57975 -4.42041 12.1983 1 -7.28689 0.106332 4
366 1 1.83476 3.52629 5.42108 2.92496 2.59091 4.96105 1 -7.28892 0.0248225 4
367 1 1.81575 1.78357 7.19453 5.0333 -0.330778 3.56147 1 -7.33307 0.0237316 4
368 1 0.884715 0.893993 8.05321 0.0477636 4.9694 -3.31189 1 -7.37854 0.0221994 4
369 1 2.73933 2.72608 8.07454 2.65083 -8.22072 6.69814 1 -7.27108 0.0743626 4
370 1 3.61881 3.59643 7.14811 -1.73065 2.25617 9.46513 1 -7.28741 0.0607949 4
411 1 0.0145884 1.81817 5.41514 -3.94897 -2.41848 -1.6834 1 -7.34877 0.0151108 4
371 1 0.0447499 3.61196 7.14401 4.57623 4.22929 -0.381323 1 -7.31794 0.0242586 4
651 1 3.61528 0.00933296 7.15936 3.79337 3.71469 -3.98369 1 -7.29123 0.0274231 4
372 1 4.48764 0.937186 4.44907 7.55419 -6.59589 -5.55631 1 -7.36117 0.0818142 4
373 1 4.47792 2.67086 6.2241 8.71503 -3.0018 -1.20005 1 -7.27642 0.0537793 4
374 1 6.29734 0.890054 6.27468 -2.46001 -3.56789 0.386412 1 -7.31136 0.011783 4
375 1 6.24157 2.66909 4.45893 3.88553 -2.34776 -2.93362 1 -7.39573 0.0181844 4
376 1 7.11983 1.7695 5.32175 -2.84988 -0.0127679 -2.12377 1 -7.29451 0.00786274 4
377 1 8.05535 0.893931 4.41277 9.84241 3.426 1.12157 1 -7.36089 0.068385 4
378 1 8.0502 2.66847 6.27153 3.28999 -1.55 2.37004 1 -7.24859 0.0117288 4
379 1 5.35653 3.58844 5.34423 -2.72567 -2.71678 -2.20182 1 -7.35701 0.0122358 4
380 1 5.35467 1.78777 7.16424 4.59763 -5.63954 0.509516 1 -7.31042 0.0331145 4
381 1 4.46299 0.902387 8.03128 1.50527 -0.640303 4.87322 1 -7.33186 0.016447 4
382 1 6.25243 2.7382 8.02214 -11.7371 -2.58475 4.3458 1 -7.35687 0.101658 4
383 1 8.0893 0.905022 8.07036 -8.99447 3.32156 0.714464 1 -7.31153 0.0575394 4
384 1 7.12417 3.56531 7.13318 -5.1629 5.36965 -5.65903 1 -7.36723 0.0544706 4
665 1 7.18724 0.00912021 7.14878 3.78723 -0.369393 -0.383361 1 -7.37152 0.00910394 4
385 1 5.34253 0.0137624 5.38428 1.0886 -5.70166 -11.1732 1 -7.25021 0.0986765 4
386 1 9.81177 0.892851 6.31544 -0.132306 2.78901 -3.70803 1 -7.32303 0.0134105 4
387 1 9.81962 2.67867 4.47122 -4.68927 -4.39244 -5.09063 1 -7.34428 0.0418253 4
388 1 10.6698 1.76189 5.39993 -1.8461 -3.44671 -1.80041 1 -7.35557 0.0115332 4
389 1 11.5817 0.867599 4.53146 -0.0377226 -4.2903 -0.337373 1 -7.3116 0.0115285 4
390 1 11.5784 2.663 6.27667 -1.63323 3.8885 0.437136 1 -7.3231 0.0111906 4
391 1 8.97515 3.59357 5.3415 -2.01456 -6.01045 2.36074 1 -7.28804 0.0284804 4
392 1 12.4908 3.57729 5.36285 9.3833 -0.878931 0.720172 1 -7.3999 0.055606 4
393 1 8.96778 1.78301 7.17961 0.213843 7.23595 -1.11434 1 -7.34607 0.033391 4
394 1 9.833 2.70807 8.09705 0.668146 3.33582 8.05635 1 -7.3376 0.0476025 4
395 1 12.472 1.76438 7.14933 0.894093 8.59271 -6.6221 1 -7.38159 0.0737489 4
396 1 11.5698 0.866304 8.02056 -3.44187 -3.07253 -4.50655 1 -7.28104 0.0258904 4
397 1 10.7018 3.56416 7.15156 5.68657 -5.51557 8.56272 1 -7.36126 0.084699 4
679 1 8.92239 0.016598 5.34428 -0.458387 -5.89177 4.01943 1 -7.25813 0.0317928 4
398 1 13.365 0.840798 6.26885 -0.655183 2.24665 0.556198 1 -7.34218 0.0036014 4
399 1 13.3655 2.69975 4.4895 2.40612 -0.836905 -1.50198 1 -7.32971 0.00544359 4
400 1 14.2554 1.75647 5.38742 -0.0475816 -1.31657 -7.82245 1 -7.29602 0.039167 4
401 1 15.2029 0.900323 4.49717 5.24585 6.39241 1.04026 1 -7.31883 0.0432362 4
402 1 15.0842 2.69395 6.28706 -1.68962 -0.300298 3.84909 1 -7.3214 0.0110546 4
403 1 16.9336 0.917396 6.30077 -4.97296 -3.89547 1.64895 1 -7.37867 0.0265303 4
404 1 16.9478 2.71874 4.49521 2.54303 1.49852 -4.54803 1 -7.32603 0.0182975 4
405 1 16.0308 3.55717 5.4036 1.47646 1.29586 -3.54886 1 -7.38404 0.0102411 4
406 1 13.3473 2.64061 8.0676 2.35477 -3.49839 5.31036 1 -7.32586 0.0286214 4
407 1 16.0351 1.79388 7.18399 3.2141 -11.9865 -1.61092 1 -7.26814 0.0974723 4
408 1 15.1344 0.890023 8.02321 2.40354 -1.28517 -0.0234093 1 -7.39963 0.00462413 4
409 1 16.9719 2.7021 8.09289 1.55044 10.7821 -2.04344 1 -7.37601 0.0764548 4
410 1 14.2688 3.58415 7.14922 4.68216 -0.172426 9.37664 1 -7.31965 0.0683883 4
694 1 16.0902 0.00686848 5.41302 3.35882 -1.58628 1.54204 1 -7.33661 0.0100683 4
412 1 17.8515 1.8243 5.3837 -3.738 2.68912 -10.3129 1 -7.33915 0.079397 4
413 1 18.7203 0.900284 4.47304 3.4072 2.02734 -3.59666 1 -7.29246 0.0178357 4
414 1 18.7441 2.71336 6.28319 -0.877992 -6.82884 4.72645 1 -7.32178 0.0434101 4
415 1 20.5459 0.901108 6.30932 -0.197921 6.27848 2.80709 1 -7.37494 0.0294645 4
416 1 20.5161 2.6858 4.51534 7.5621 3.26889 -5.72422 1 -7.35862 0.0626396 4
417 1 19.6184 3.59268 5.34918 0.857515 -1.89725 4.39472 1 -7.36851 0.0147194 4
418 1 19.6409 1.77903 7.20204 3.18508 -7.30834 -1.83902 1 -7.31419 0.0416643 4
419 1 18.7146 0.881304 8.09198 -2.21996 3.4866 0.516714 1 -7.35398 0.0108001 4
420 1 20.5393 2.7191 8.08143 -1.36683 2.86004 -3.27413 1 -7.26568 0.0129265 4
421 1 17.85 3.57122 7.19748 8.14557 -0.0255938 0.958847 1 -7.35911 0.0418709 4
709 1 17.7635 0.0461288 7.16588 13.6196 -5.43959 7.7948 1 -7.22853 0.171691 4
422 1 19.673 -0.00229844 5.4054 7.60305 -4.0989 3.31262 1 -7.27288 0.0532677 4
423 1 0.941057 4.49474 4.48294 -0.599269 -4.73422 7.32212 1 -7.25667 0.0475443 4
424 1 0.887995 6.27814 6.2999 0.321305 -2.33941 -1.39995 1 -7.31774 0.00469056 4
425 1 2.73142 4.50258 6.24538 -1.32509 -4.74602 2.88921 1 -7.28754 0.0203085 4
426 1 2.68221 6.24218 4.52002 5.14565 -8.73127 -5.94798 1 -7.34356 0.0859516 4
427 1 3.57552 5.36551 5.37695 3.3494 1.98334 2.25333 1 -7.45027 0.0125915 4
428 1 1.77137 7.1356 5.36028 -2.70213 3.75843 8.60355 1 -7.26085 0.0594095 4
429 1 0.913414 8.0468 4.44774 -0.0116479 -3.95403 -4.68241 1 -7.29894 0.023378 4
430 1 2.71271 8.06626 6.26018 -4.37482 -4.02577 4.89941 1 -7.2174 0.0369411 4
431 1 1.80334 5.37938 7.1916 -0.767421 -1.85235 1.83772 1 -7.27762 0.0046043 4