ITEM: TIMESTEP
49125875
ITEM: NUMBER OF ATOMS
3060
ITEM: BOX BOUNDS pp pp mm
0.0000000000000000e+00 2.1394294200000001e+01
0.0000000000000000e+00 2.1394294200000001e+01
-5.3491084073550004e-03 5.3485735499999997e+01
ITEM: ATOMS id type x y z vx vy vz c_clusts c_atom_pe c_atom_ke c_atom_coord
1 1 0 0 0 0 0 0 1 -3.32868 0 2
2 1 1.78286 1.78286 0 0 0 0 1 -3.30553 0 2
3 1 0.891429 0.891429 0.891429 0 0 0 1 -7.01431 0 4
4 1 0.873879 2.71013 2.6951 -1.90251 -11.1255 4.84882 1 -7.29354 0.0939291 4
5 1 2.63498 0.883341 2.62429 -1.77447 -4.91589 1.97681 1 -7.26351 0.0194337 4
6 1 2.67429 2.67429 0.891429 0 0 0 1 -7.03623 0 4
7 1 3.56572 0 0 0 0 0 1 -3.33702 0 2
8 1 3.5574 1.76385 1.7504 -2.40779 -4.97671 -5.9225 1 -7.36817 0.0408568 4
9 1 0 3.56572 0 0 0 0 1 -3.30688 0 2
10 1 1.76449 3.54728 1.78072 -1.01087 -0.969788 -3.17763 1 -7.3175 0.00750626 4
11 1 3.56572 3.56572 0 0 0 0 1 -3.33813 0 2
12 1 1.83771 1.82071 3.58782 0.404789 4.0475 -1.25045 1 -7.2574 0.011272 4
13 1 3.62247 3.58428 3.60463 2.92367 -13.3914 4.93255 1 -7.36642 0.132083 4
292 1 1.79587 0.00968006 1.77892 5.33631 -0.933388 -3.27153 1 -7.38461 0.0249284 4
56 1 0.0183175 3.61445 3.58129 -1.61255 -3.78023 -0.434432 1 -7.31103 0.0106305 4
55 1 -0.00635306 1.81412 1.77883 -3.13405 2.7766 -2.18902 1 -7.36326 0.0138948 4
291 1 3.55725 -0.0337421 3.54665 -0.655207 -5.66476 4.33335 1 -7.28365 0.0319284 4
350 1 0.0103977 0.0287138 3.52726 2.96444 4.58433 -2.18897 1 -7.3186 0.0215332 4
14 1 5.34857 1.78286 0 0 0 0 1 -3.32274 0 2
15 1 4.45714 0.891429 0.891429 0 0 0 1 -7.01989 0 4
16 1 4.45852 2.60385 2.71512 -1.99981 -4.00434 -3.87921 1 -7.31226 0.0218362 4
17 1 6.2633 0.887521 2.6852 3.17323 1.11052 -4.0367 1 -7.39359 0.0171775 4
18 1 6.24 2.67429 0.891429 0 0 0 1 -6.98183 0 4
19 1 7.13143 0 0 0 0 0 1 -3.32359 0 2
20 1 7.15501 1.7666 1.74996 -4.38882 -1.50078 2.95033 1 -7.32072 0.0188088 4
21 1 8.02286 0.891429 0.891429 0 0 0 1 -7.05487 0 4
22 1 8.0158 2.66967 2.65477 11.3061 4.51439 -2.13908 1 -7.33399 0.0950966 4
23 1 5.34516 3.54419 1.8318 -1.07018 -4.77208 -0.71273 1 -7.24565 0.0152034 4
24 1 7.13143 3.56572 0 0 0 0 1 -3.3399 0 2
25 1 5.39981 1.72984 3.57877 -5.47801 -0.640953 8.99986 1 -7.36795 0.0693489 4
26 1 7.11683 3.52149 3.53115 -1.74669 -1.03179 2.61273 1 -7.33339 0.00681051 4
306 1 7.18579 -0.0340546 3.54167 -10.8638 -9.24343 12.2707 1 -7.32462 0.22036 4
28 1 8.91429 1.78286 0 0 0 0 1 -3.33413 0 2
29 1 9.81853 0.821079 2.67296 -6.82995 -1.51271 5.30881 1 -7.3032 0.0480015 4
30 1 9.80572 2.67429 0.891429 0 0 0 1 -7.03333 0 4
31 1 10.6971 0 0 0 0 0 1 -3.33385 0 2
32 1 10.6632 1.76142 1.77914 -1.1149 3.87332 -4.73103 1 -7.33384 0.0240432 4
33 1 12.48 1.78286 0 0 0 0 1 -3.33022 0 2
34 1 11.5886 0.891429 0.891429 0 0 0 1 -6.99716 0 4
35 1 11.5737 2.69155 2.66972 1.96554 0.461531 -0.370708 1 -7.31482 0.00262277 4
36 1 8.95247 3.53098 1.79325 -2.60485 -2.38343 -0.595377 1 -7.3602 0.00797977 4
37 1 10.6971 3.56572 0 0 0 0 1 -3.34916 0 2
38 1 12.4895 3.56039 1.77609 -1.39587 -4.64007 -8.11635 1 -7.36579 0.0556162 4
39 1 8.89764 1.75083 3.59224 -2.19713 -2.37747 6.84255 1 -7.23645 0.0356652 4
40 1 12.4917 1.78431 3.51419 10.9788 -5.56438 -6.47405 1 -7.33968 0.120384 4
41 1 10.7105 3.56644 3.58122 6.26892 4.38824 0.431893 1 -7.38404 0.0365629 4
319 1 10.6914 -0.0674764 3.56832 -8.42521 -2.45033 -0.700359 1 -7.34664 0.0482248 4
42 1 13.3695 0.890564 2.67867 -6.54996 -0.0570213 -1.72885 1 -7.39253 0.0285657 4
43 1 13.3714 2.67429 0.891429 0 0 0 1 -7.00979 0 4
44 1 14.2629 0 0 0 0 0 1 -3.31171 0 2
45 1 14.2565 1.74789 1.77102 4.21935 -1.59093 2.41909 1 -7.32976 0.0162988 4
46 1 16.0457 1.78286 0 0 0 0 1 -3.34242 0 2
47 1 15.1543 0.891429 0.891429 0 0 0 1 -7.02564 0 4
48 1 15.1363 2.6774 2.68469 -6.40477 -3.66927 -6.80494 1 -7.3447 0.0627354 4
49 1 16.9015 0.91243 2.66461 3.41089 0.885421 -3.50804 1 -7.35289 0.0153892 4
50 1 16.9371 2.67429 0.891429 0 0 0 1 -7.01434 0 4
51 1 14.2629 3.56572 0 0 0 0 1 -3.32608 0 2
52 1 16.0342 3.56459 1.76982 -6.86268 5.46776 -1.92617 1 -7.34765 0.0502317 4
53 1 15.9987 1.78111 3.55873 1.79343 -8.9179 2.447 1 -7.34201 0.0552298 4
54 1 14.2805 3.57423 3.54413 -0.762868 -6.84786 0.159029 1 -7.39248 0.0295655 4
336 1 14.277 -0.0251485 3.53117 -8.12751 1.54398 0.509385 1 -7.37779 0.0427605 4
57 1 17.8286 0 0 0 0 0 1 -3.33906 0 2
58 1 17.8053 1.82268 1.79054 4.16388 3.26036 4.42483 1 -7.31407 0.0295945 4
59 1 19.6114 1.78286 0 0 0 0 1 -3.33646 0 2
60 1 18.72 0.891429 0.891429 0 0 0 1 -6.98678 0 4
61 1 18.776 2.69802 2.67887 9.20397 -6.92898 0.39365 1 -7.30769 0.0827072 4
62 1 20.5141 0.938866 2.64507 -0.626821 -2.5029 5.15723 1 -7.34365 0.0206984 4
63 1 20.5029 2.67429 0.891429 0 0 0 1 -7.0212 0 4
64 1 17.8286 3.56572 0 0 0 0 1 -3.33824 0 2
65 1 19.6463 3.57162 1.79245 0.997055 -0.285122 -4.04831 1 -7.39835 0.0108702 4
66 1 19.6138 1.80522 3.57745 -0.963946 -6.25077 2.00183 1 -7.38215 0.0273921 4
67 1 17.8702 3.55898 3.58368 0.567335 -0.738294 -2.28053 1 -7.32847 0.00377675 4
68 1 19.6238 0.0193087 1.76133 -2.20862 2.27498 -2.1201 1 -7.34564 0.00905528 4
349 1 17.8333 0.0299585 3.54792 -0.873456 -6.31575 3.39655 1 -7.35755 0.0324833 4
69 1 1.78286 5.34857 0 0 0 0 1 -3.32922 0 2
70 1 0.891429 4.45714 0.891429 0 0 0 1 -7.02178 0 4
71 1 0.900748 6.16071 2.64577 7.95736 0.460375 6.79325 1 -7.31237 0.0682675 4
72 1 2.68951 4.38936 2.72859 4.29472 2.49634 4.65251 1 -7.32278 0.0288322 4
73 1 2.67429 6.24 0.891429 0 0 0 1 -7.02394 0 4
74 1 3.55077 5.33409 1.80155 6.23964 -5.26217 -2.6909 1 -7.33133 0.0459752 4
75 1 0 7.13143 0 0 0 0 1 -3.33435 0 2
76 1 1.76225 7.10408 1.73499 -3.37469 -5.14102 -0.718353 1 -7.30976 0.0238604 4
77 1 0.891429 8.02286 0.891429 0 0 0 1 -7.04592 0 4
78 1 2.67187 8.04337 2.65702 3.67902 4.35312 -3.35262 1 -7.29162 0.0272155 4
79 1 3.56572 7.13143 0 0 0 0 1 -3.34078 0 2
80 1 1.77104 5.29123 3.58257 -0.63317 2.20418 -3.05377 1 -7.32968 0.00907798 4
81 1 3.56341 7.14282 3.5818 -4.18594 2.4946 3.65326 1 -7.2752 0.0230867 4
128 1 -0.0245469 5.31919 1.75692 -2.9622 0.746323 -2.4516 1 -7.36167 0.00954922 4
82 1 0.00467382 7.09263 3.56995 -9.50901 0.423724 2.95655 1 -7.24762 0.0618331 4
83 1 5.34857 5.34857 0 0 0 0 1 -3.36198 0 2
84 1 4.45714 4.45714 0.891429 0 0 0 1 -6.94673 0 4
85 1 4.47506 6.18959 2.67057 -3.83114 -2.86814 -0.334773 1 -7.27875 0.0143257 4
86 1 6.25734 4.48424 2.65256 -0.618646 0.798498 0.792525 1 -7.30097 0.00102602 4
87 1 6.24 6.24 0.891429 0 0 0 1 -7.03623 0 4
88 1 7.15252 5.39412 1.74119 1.09642 1.42554 -4.66355 1 -7.34423 0.0155501 4
89 1 8.02286 4.45714 0.891429 0 0 0 1 -6.96098 0 4
90 1 8.04814 6.25632 2.67481 6.55356 -3.42406 5.10153 1 -7.40666 0.0502292 4
91 1 5.36468 7.13545 1.77641 -4.99328 -2.2943 -0.750284 1 -7.33728 0.0191456 4
92 1 4.45714 8.02286 0.891429 0 0 0 1 -7.01266 0 4
93 1 6.1841 8.02913 2.69341 -8.48049 -0.426145 -8.63491 1 -7.28891 0.0912864 4
94 1 7.13143 7.13143 0 0 0 0 1 -3.30664 0 2
95 1 8.02286 8.02286 0.891429 0 0 0 1 -7.02516 0 4
96 1 5.3978 5.38179 3.56099 3.33495 3.51233 -8.27476 1 -7.33769 0.0572196 4
97 1 7.18016 7.12799 3.56577 -5.18875 1.36641 4.96555 1 -7.31666 0.0332667 4
98 1 8.91429 5.34857 0 0 0 0 1 -3.31163 0 2
99 1 9.80946 4.4299 2.66975 -5.23347 0.382871 2.2728 1 -7.38712 0.0203542 4
100 1 9.80572 6.24 0.891429 0 0 0 1 -7.00938 0 4
101 1 10.7171 5.31408 1.78513 -6.32619 0.225984 -1.79385 1 -7.34806 0.0269446 4
102 1 12.48 5.34857 0 0 0 0 1 -3.34064 0 2
103 1 11.5886 4.45714 0.891429 0 0 0 1 -7.02757 0 4
104 1 11.6195 6.23328 2.68714 -2.93349 -2.74297 4.82794 1 -7.37057 0.0245474 4
105 1 8.95517 7.13123 1.75494 -4.54293 -1.26282 9.41951 1 -7.3465 0.0690645 4
106 1 9.83457 8.03969 2.64242 7.81151 7.48083 -4.2121 1 -7.35339 0.0838559 4
107 1 10.6971 7.13143 0 0 0 0 1 -3.31337 0 2
108 1 12.5007 7.08187 1.82391 0.687915 0.556031 1.11456 1 -7.3446 0.00126019 4
109 1 11.5886 8.02286 0.891429 0 0 0 1 -6.93342 0 4
110 1 8.9065 5.3167 3.51776 4.8775 -5.01634 9.25076 1 -7.34993 0.0837351 4
111 1 12.4632 5.3608 3.59562 -0.71416 -2.52168 2.54096 1 -7.25918 0.00829406 4
112 1 10.7073 7.1508 3.57996 1.48763 7.53887 2.31981 1 -7.34155 0.0401024 4
113 1 13.3861 4.3986 2.67778 0.840903 2.42133 5.99681 1 -7.26539 0.0264728 4
114 1 13.3714 6.24 0.891429 0 0 0 1 -7.03567 0 4
115 1 14.2268 5.37343 1.75978 -2.93981 4.04084 -11.6866 1 -7.22654 0.100551 4
116 1 16.0457 5.34857 0 0 0 0 1 -3.33034 0 2
117 1 15.1543 4.45714 0.891429 0 0 0 1 -6.98087 0 4
118 1 15.1958 6.27077 2.64898 -5.06195 2.60378 4.9513 1 -7.26564 0.0354275 4
119 1 16.9759 4.44024 2.65398 0.205696 -3.95096 8.72846 1 -7.28817 0.0571627 4
120 1 16.9371 6.24 0.891429 0 0 0 1 -7.03743 0 4
121 1 13.3871 7.98783 2.69901 -0.24111 1.96001 -0.413198 1 -7.34044 0.0025336 4
122 1 14.2629 7.13143 0 0 0 0 1 -3.36148 0 2
123 1 16.0771 7.14851 1.75193 2.7212 -4.50528 -4.58589 1 -7.37859 0.0303326 4
124 1 15.1543 8.02286 0.891429 0 0 0 1 -7.02169 0 4
125 1 16.9525 8.03592 2.71349 0.704156 -9.79701 -10.3908 1 -7.27617 0.127252 4
126 1 16.028 5.34802 3.57359 -3.20412 9.57114 -3.43115 1 -7.28119 0.0707362 4
127 1 14.2668 7.10181 3.57811 3.62363 -1.65439 5.47596 1 -7.32033 0.0285407 4
129 1 17.8297 5.33085 1.76248 1.24317 2.43702 -3.38735 1 -7.40493 0.0118004 4
130 1 19.6114 5.34857 0 0 0 0 1 -3.29965 0 2
131 1 18.72 4.45714 0.891429 0 0 0 1 -7.00448 0 4
132 1 18.7115 6.23681 2.65154 3.55966 -3.07958 1.94178 1 -7.34646 0.0161367 4
133 1 20.4949 4.45845 2.64144 -1.85559 -1.68574 -0.625116 1 -7.32599 0.00415513 4
134 1 20.5029 6.24 0.891429 0 0 0 1 -7.01275 0 4
135 1 17.8286 7.13143 0 0 0 0 1 -3.32452 0 2
136 1 19.5607 7.11711 1.7808 -1.79438 -4.98645 5.44984 1 -7.33682 0.0359671 4
137 1 18.72 8.02286 0.891429 0 0 0 1 -7.01411 0 4
138 1 20.4838 8.03842 2.66061 -4.83997 -2.96614 1.69437 1 -7.31017 0.0218435 4
139 1 19.6249 5.34495 3.59316 4.82752 -0.947968 -0.633922 1 -7.30979 0.0153151 4
140 1 17.8721 7.15651 3.59676 3.9543 4.88842 1.75361 1 -7.34119 0.0265205 4
141 1 1.78286 8.91429 0 0 0 0 1 -3.34154 0 2
142 1 0.901694 9.81172 2.63852 0.83506 -4.4888 8.40823 1 -7.32523 0.05698 4
143 1 2.67429 9.80572 0.891429 0 0 0 1 -7.0026 0 4
144 1 3.54667 8.92217 1.76241 3.34891 -4.36435 3.02049 1 -7.35274 0.024515 4
145 1 0 10.6971 0 0 0 0 1 -3.33073 0 2
146 1 1.78989 10.7093 1.79631 -3.59802 1.25027 -7.56889 1 -7.36964 0.0446884 4
147 1 1.78286 12.48 0 0 0 0 1 -3.3087 0 2
148 1 0.891429 11.5886 0.891429 0 0 0 1 -7.02913 0 4
149 1 2.68247 11.5731 2.65052 -2.27366 0.118076 -1.60787 1 -7.38733 0.00483545 4
150 1 3.56572 10.6971 0 0 0 0 1 -3.34056 0 2
151 1 3.59812 12.4408 1.76178 -12.1465 -2.21738 -1.75973 1 -7.30886 0.0968183 4
152 1 1.7848 8.92564 3.59789 5.27594 3.15676 -0.538946 1 -7.26333 0.0237089 4
153 1 1.86738 12.4845 3.53117 -0.549401 0.965208 -1.56814 1 -7.37152 0.00229834 4
154 1 3.57829 10.6801 3.50583 -2.52152 3.37041 -9.88289 1 -7.24733 0.0718214 4
205 1 0.021523 8.88733 1.77539 7.79864 -5.71945 -1.6322 1 -7.40384 0.0598743 4
204 1 0.0274687 12.5029 1.75508 12.8013 -1.76385 -1.01066 1 -7.31334 0.104571 4
155 1 5.34857 8.91429 0 0 0 0 1 -3.32409 0 2
156 1 4.47079 9.82966 2.64687 -6.43176 -2.48078 -0.757758 1 -7.30279 0.0299362 4
157 1 6.24 9.80572 0.891429 0 0 0 1 -6.99579 0 4
158 1 7.11042 8.90061 1.7688 -14.9637 -4.70532 0.444352 1 -7.34728 0.153272 4
159 1 7.98031 9.81105 2.65422 0.376093 -5.33448 -8.5184 1 -7.34915 0.0629654 4
160 1 5.3565 10.7208 1.78344 4.22092 -5.19038 3.43789 1 -7.38606 0.0352139 4
161 1 5.34857 12.48 0 0 0 0 1 -3.32658 0 2
162 1 4.45714 11.5886 0.891429 0 0 0 1 -7.02663 0 4
163 1 6.24324 11.5953 2.67263 0.20201 3.90776 -2.24929 1 -7.39817 0.0126792 4
164 1 7.13143 10.6971 0 0 0 0 1 -3.33445 0 2
165 1 7.12279 12.4688 1.78949 -3.6718 -0.696641 5.85356 1 -7.34167 0.0300206 4
166 1 8.02286 11.5886 0.891429 0 0 0 1 -7.02204 0 4
167 1 5.31704 8.88506 3.59215 -3.49857 1.38408 1.94368 1 -7.36601 0.0111623 4
168 1 5.36419 12.4932 3.55008 -11.5586 -1.86775 0.0176697 1 -7.38143 0.085328 4
169 1 7.11385 10.686 3.54711 -1.93874 6.24985 4.00977 1 -7.36617 0.0366594 4
170 1 8.91429 8.91429 0 0 0 0 1 -3.31891 0 2
171 1 9.80572 9.80572 0.891429 0 0 0 1 -6.99715 0 4
172 1 10.6656 8.94693 1.75029 4.54854 5.65886 2.45532 1 -7.33694 0.0365616 4
173 1 12.48 8.91429 0 0 0 0 1 -3.34289 0 2
174 1 11.6027 9.80904 2.68097 6.68696 3.2936 4.75844 1 -7.29827 0.0486775 4
175 1 8.86916 10.7388 1.78173 -4.07851 -1.94089 0.444696 1 -7.32572 0.0128214 4
176 1 8.91429 12.48 0 0 0 0 1 -3.3469 0 2
177 1 9.8066 11.6031 2.64954 6.95758 0.511759 1.57794 1 -7.36194 0.0318431 4
178 1 10.6971 10.6971 0 0 0 0 1 -3.33434 0 2
179 1 10.7083 12.4543 1.79636 6.92812 1.3149 -4.59285 1 -7.36386 0.0440815 4
180 1 12.5152 10.6952 1.78263 2.70997 3.26651 -0.219151 1 -7.32179 0.0112423 4
181 1 12.48 12.48 0 0 0 0 1 -3.32955 0 2
182 1 11.5886 11.5886 0.891429 0 0 0 1 -6.99795 0 4
183 1 8.90974 8.93357 3.54476 -1.85589 -1.1259 5.76782 1 -7.32461 0.0236395 4
184 1 12.5137 8.89112 3.57955 1.29087 11.1454 11.1709 1 -7.347 0.156027 4
185 1 8.91936 12.5105 3.54786 -1.25234 3.60863 -3.60361 1 -7.2728 0.0171644 4
186 1 10.7017 10.7275 3.55113 5.30162 -4.43331 -2.69387 1 -7.3396 0.0342449 4
187 1 12.5025 12.5295 3.59534 1.10975 10.3811 1.02174 1 -7.3934 0.0684938 4
188 1 13.3714 9.80572 0.891429 0 0 0 1 -7.02865 0 4
189 1 14.2872 8.9086 1.79747 -2.56699 1.31401 -0.324809 1 -7.36201 0.00524179 4
190 1 16.0457 8.91429 0 0 0 0 1 -3.34808 0 2
191 1 15.1636 9.77144 2.68962 -0.568297 6.26034 -8.34958 1 -7.27628 0.0679878 4
192 1 16.9371 9.80572 0.891429 0 0 0 1 -6.98686 0 4
193 1 13.3805 11.6019 2.69084 -1.33005 1.33911 -5.53168 1 -7.31943 0.0212632 4
194 1 14.2629 10.6971 0 0 0 0 1 -3.34143 0 2
195 1 14.2688 12.4719 1.76394 -5.85857 3.52309 -3.78503 1 -7.29397 0.0380063 4
196 1 16.0869 10.7554 1.77152 -5.5796 0.720846 -2.89725 1 -7.26295 0.0249254 4
197 1 16.0457 12.48 0 0 0 0 1 -3.31233 0 2
198 1 15.1543 11.5886 0.891429 0 0 0 1 -7.06112 0 4
199 1 16.9464 11.5784 2.71985 3.50812 -8.06559 4.34976 1 -7.40021 0.0599279 4
200 1 16.0491 8.85448 3.58013 -6.02609 0.204427 2.44014 1 -7.37785 0.0263347 4
201 1 14.2929 10.6911 3.54241 7.96866 0.910903 4.56981 1 -7.27454 0.0530385 4
202 1 16.0812 12.4765 3.58908 0.213168 0.366324 -0.830775 1 -7.32925 0.000541399 4
203 1 21.4697 10.7472 3.54499 2.12284 -5.22336 3.84689 1 -7.26014 0.0289979 4
206 1 17.8645 8.94816 1.79888 -0.00402584 2.36917 -2.93915 1 -7.32612 0.00887054 4
207 1 19.6114 8.91429 0 0 0 0 1 -3.34637 0 2
208 1 18.716 9.82001 2.72397 4.59789 -1.12087 3.42003 1 -7.29398 0.0212207 4
209 1 20.5029 9.80572 0.891429 0 0 0 1 -7.00312 0 4
210 1 17.8286 10.6971 0 0 0 0 1 -3.31185 0 2
211 1 17.8164 12.4942 1.79197 1.45197 -2.29453 -6.95549 1 -7.32461 0.0347015 4
212 1 19.67 10.7147 1.78268 -3.78134 -2.35111 4.03451 1 -7.2601 0.0224718 4
213 1 19.6114 12.48 0 0 0 0 1 -3.30542 0 2
214 1 18.72 11.5886 0.891429 0 0 0 1 -6.96641 0 4
215 1 20.5371 11.6545 2.69584 -3.10936 -0.617197 1.08579 1 -7.28362 0.00698859 4
216 1 19.6283 8.94835 3.59325 7.01179 -5.66127 5.32373 1 -7.34561 0.0681913 4
217 1 17.8454 10.6949 3.58727 -8.68737 -1.29585 3.50087 1 -7.38318 0.0556485 4
218 1 19.6043 12.4827 3.58522 -2.48122 -3.19695 4.34961 1 -7.3926 0.0219692 4
219 1 0.929158 13.386 2.66313 -1.05225 -1.75204 0.161472 1 -7.3401 0.00261602 4
220 1 2.67429 13.3714 0.891429 0 0 0 1 -7.00276 0 4
221 1 0 14.2629 0 0 0 0 1 -3.32811 0 2
222 1 1.78312 14.256 1.76239 4.47322 -4.05146 -1.2974 1 -7.32719 0.0237189 4
223 1 1.78286 16.0457 0 0 0 0 1 -3.3285 0 2
224 1 0.891429 15.1543 0.891429 0 0 0 1 -7.04678 0 4
225 1 0.868288 16.9275 2.67444 -0.355336 -2.37738 3.66203 1 -7.32447 0.0119435 4
226 1 2.67921 15.1698 2.68558 3.43789 -10.2538 3.72416 1 -7.3003 0.0814313 4
227 1 2.67429 16.9371 0.891429 0 0 0 1 -7.03748 0 4
228 1 3.56572 14.2629 0 0 0 0 1 -3.32255 0 2
229 1 3.53939 16.0926 1.75262 1.54067 0.0776091 -1.51989 1 -7.31986 0.00291903 4
230 1 1.77123 16.0629 3.55134 1.42792 -1.89925 2.72976 1 -7.31802 0.00815237 4
231 1 3.57155 14.2202 3.52525 -2.93096 -2.55319 -2.0201 1 -7.33791 0.0119444 4
233 1 0.00165081 16.0259 1.74474 5.61077 3.34795 0.886365 1 -7.35317 0.0270601 4
232 1 -0.00137492 14.236 3.53219 -1.60833 -2.73195 -12.7868 1 -7.40893 0.108023 4
234 1 4.48366 13.3549 2.66754 5.56216 4.7132 -0.921128 1 -7.37308 0.0336113 4
235 1 6.24 13.3714 0.891429 0 0 0 1 -7.00703 0 4
236 1 8.02531 13.4053 2.67954 -8.06531 -1.84859 -2.13937 1 -7.34882 0.0454641 4
237 1 5.34093 14.273 1.76129 7.86861 -1.66758 -1.01152 1 -7.38777 0.0409052 4
238 1 5.34857 16.0457 0 0 0 0 1 -3.33038 0 2
239 1 4.45714 15.1543 0.891429 0 0 0 1 -7.01693 0 4
240 1 4.45101 16.9705 2.69257 5.15232 -7.74259 -7.38254 1 -7.31263 0.0877597 4
241 1 6.21521 15.1692 2.68719 -4.82295 5.06103 1.7413 1 -7.3104 0.0323083 4
242 1 6.24 16.9371 0.891429 0 0 0 1 -7.01721 0 4
243 1 7.13143 14.2629 0 0 0 0 1 -3.34512 0 2
244 1 7.16505 16.0617 1.78069 -3.33229 1.47376 -4.0419 1 -7.25655 0.018432 4
245 1 8.02286 15.1543 0.891429 0 0 0 1 -7.01011 0 4
246 1 8.06262 16.9406 2.71601 6.65406 1.57079 -5.815 1 -7.36921 0.0501415 4
247 1 5.36421 16.0791 3.57668 1.88205 4.65402 -2.1796 1 -7.31851 0.0186433 4
248 1 7.14078 14.2915 3.54144 2.39688 -5.30795 5.69858 1 -7.36337 0.0413248 4
249 1 9.80572 13.3714 0.891429 0 0 0 1 -7.02279 0 4
250 1 11.6311 13.3374 2.6892 -1.65907 -1.62924 5.59987 1 -7.33454 0.0228838 4
251 1 8.94396 14.258 1.77545 -8.41069 4.51452 -1.77661 1 -7.32479 0.0586805 4
252 1 8.91429 16.0457 0 0 0 0 1 -3.31975 0 2
253 1 9.83731 15.1807 2.69646 -6.11176 -3.25492 -0.694573 1 -7.381 0.0301445 4
254 1 9.80572 16.9371 0.891429 0 0 0 1 -7.02865 0 4
255 1 10.6971 14.2629 0 0 0 0 1 -3.33995 0 2
256 1 10.6919 16.06 1.78142 -9.40072 -0.691429 -2.14305 1 -7.33981 0.0581622 4
257 1 12.4695 14.3012 1.77241 -0.125521 1.38086 5.47583 1 -7.2858 0.0198599 4
258 1 12.48 16.0457 0 0 0 0 1 -3.32208 0 2
259 1 11.5886 15.1543 0.891429 0 0 0 1 -7.04522 0 4
260 1 11.6156 16.9423 2.70663 -14.8414 -0.178653 -0.575763 1 -7.35641 0.137326 4
261 1 8.93599 16.0502 3.55844 -5.76461 -8.50778 -5.05986 1 -7.41091 0.0816718 4
262 1 10.7413 14.2842 3.54557 -4.50267 -6.03327 13.3462 1 -7.28336 0.146142 4
263 1 12.4828 16.0948 3.59652 8.77432 0.354832 -0.181098 1 -7.27045 0.0480186 4
264 1 13.3714 13.3714 0.891429 0 0 0 1 -6.98251 0 4
265 1 15.1491 13.4116 2.72065 1.17378 -2.8597 6.28601 1 -7.30815 0.0305422 4
266 1 16.9371 13.3714 0.891429 0 0 0 1 -7.05456 0 4
267 1 13.3886 15.1884 2.69682 -0.242667 -2.86865 -2.65276 1 -7.33755 0.00953881 4
268 1 13.3714 16.9371 0.891429 0 0 0 1 -7.03979 0 4
269 1 14.2629 14.2629 0 0 0 0 1 -3.31278 0 2
270 1 14.2694 16.0294 1.744 -6.58993 -0.471916 4.91282 1 -7.3371 0.0421916 4
271 1 16.034 14.2504 1.78346 -2.64835 2.29795 6.19136 1 -7.32423 0.0315118 4
272 1 16.0457 16.0457 0 0 0 0 1 -3.34385 0 2
273 1 15.1543 15.1543 0.891429 0 0 0 1 -7.02737 0 4
274 1 15.1857 16.9166 2.63823 -4.67119 -2.8479 10.7868 1 -7.36013 0.0910517 4
275 1 16.9449 15.1612 2.66908 -9.83683 4.64887 6.36919 1 -7.32186 0.0989296 4
276 1 16.9371 16.9371 0.891429 0 0 0 1 -7.03898 0 4
277 1 14.2729 14.2772 3.56422 5.46895 2.78677 0.211444 1 -7.36718 0.0234781 4
278 1 16.0523 16.0359 3.52826 1.13669 -3.36944 1.82645 1 -7.30168 0.00994707 4
279 1 18.694 13.3169 2.67086 -3.69809 -1.72606 0.810439 1 -7.34124 0.0107754 4
280 1 20.5029 13.3714 0.891429 0 0 0 1 -7.02308 0 4
281 1 17.8286 14.2629 0 0 0 0 1 -3.312 0 2
282 1 17.7939 16.059 1.77846 6.4824 6.64754 3.22445 1 -7.33371 0.0601316 4
283 1 19.5854 14.1912 1.78029 4.23722 -2.13161 2.29436 1 -7.29977 0.0172797 4
284 1 19.6114 16.0457 0 0 0 0 1 -3.33189 0 2
285 1 18.72 15.1543 0.891429 0 0 0 1 -6.96674 0 4
286 1 18.7218 16.9182 2.71863 4.7125 3.48747 -2.45882 1 -7.3258 0.0251559 4
287 1 20.497 15.123 2.68836 8.20242 -6.35905 -2.83959 1 -7.27148 0.0720648 4
288 1 20.5029 16.9371 0.891429 0 0 0 1 -7.04572 0 4
289 1 17.8388 14.259 3.57857 -5.68922 -2.61845 0.0286885 1 -7.38986 0.0244143 4
290 1 19.6106 15.9994 3.5994 -3.89434 7.93177 4.85649 1 -7.37864 0.0632786 4
293 1 0 17.8286 0 0 0 0 1 -3.33872 0 2
294 1 1.75191 17.8243 1.77787 -1.0328 5.16645 -4.70753 1 -7.30429 0.0310713 4
295 1 1.78286 19.6114 0 0 0 0 1 -3.33753 0 2
296 1 0.891429 18.72 0.891429 0 0 0 1 -7.01447 0 4
297 1 0.926093 20.4879 2.65467 -2.63583 -1.63738 -1.42852 1 -7.30119 0.00726326 4
298 1 2.66448 18.745 2.72016 4.46817 3.34527 6.90105 1 -7.24904 0.0490346 4
299 1 2.67429 20.5029 0.891429 0 0 0 1 -7.03192 0 4
300 1 3.56572 17.8286 0 0 0 0 1 -3.3191 0 2
301 1 3.51312 19.6198 1.76958 0.232294 7.76294 9.44302 1 -7.32784 0.0930451 4
302 1 1.74942 19.6553 3.64634 3.80064 -1.60696 -2.50564 1 -7.33226 0.0145059 4
303 1 3.55885 17.8668 3.62019 -2.37951 7.30131 3.19255 1 -7.35258 0.0430492 4
305 1 0.00566879 19.6148 1.78232 -9.90214 -0.0125284 -8.34681 1 -7.35444 0.104394 4
27 1 5.38038 21.4079 1.7751 -4.27476 -3.35086 0.783515 1 -7.35541 0.0187449 4
307 1 5.36346 17.7971 1.80819 -2.12793 -5.44798 -7.28718 1 -7.33517 0.054345 4
308 1 5.34857 19.6114 0 0 0 0 1 -3.33569 0 2
309 1 4.45714 18.72 0.891429 0 0 0 1 -6.95207 0 4
310 1 4.46214 20.4965 2.64646 4.97225 5.49379 -7.3442 1 -7.27856 0.0677463 4
311 1 6.24693 18.6866 2.66917 4.94959 -0.442419 0.083077 1 -7.3734 0.0153746 4
312 1 6.24 20.5029 0.891429 0 0 0 1 -7.02497 0 4
313 1 7.13143 17.8286 0 0 0 0 1 -3.32179 0 2
314 1 7.12779 19.5744 1.76168 -3.85694 -0.461818 1.17076 1 -7.32972 0.0102451 4
315 1 8.02286 18.72 0.891429 0 0 0 1 -7.04015 0 4
316 1 8.04572 20.4722 2.69887 -0.351046 -3.09218 0.780135 1 -7.34764 0.00640689 4
317 1 5.41149 19.5914 3.53928 -0.709634 4.70689 -2.92973 1 -7.37322 0.0194457 4
318 1 7.10851 17.7965 3.56711 -0.392704 -7.01344 7.09844 1 -7.32559 0.0620749 4
320 1 8.90121 21.3742 1.79504 2.85764 2.70583 -2.42183 1 -7.34351 0.0132906 4
321 1 12.4819 21.4007 1.77291 -1.68444 -4.60968 -0.805224 1 -7.32196 0.0153956 4
322 1 8.91303 17.8206 1.78173 -9.21787 -2.19103 -3.9482 1 -7.34046 0.0655776 4
323 1 8.91429 19.6114 0 0 0 0 1 -3.3339 0 2
324 1 9.84544 18.6895 2.6578 -1.66281 -1.35028 -4.59424 1 -7.293 0.0159934 4
325 1 9.80572 20.5029 0.891429 0 0 0 1 -7.02552 0 4
326 1 10.6971 17.8286 0 0 0 0 1 -3.32595 0 2
327 1 10.6672 19.622 1.75762 -1.35799 -0.101198 -3.15566 1 -7.36498 0.00735245 4
328 1 12.496 17.8215 1.77561 -2.54215 4.19784 -6.13694 1 -7.31863 0.0384325 4
329 1 12.48 19.6114 0 0 0 0 1 -3.33233 0 2
330 1 11.5886 18.72 0.891429 0 0 0 1 -7.00111 0 4
331 1 11.5495 20.4941 2.68094 4.17456 0.936924 -4.88403 1 -7.29846 0.0262405 4
332 1 8.89619 19.5584 3.56839 -3.98682 4.1408 4.18568 1 -7.30699 0.0314704 4
333 1 10.7535 17.8319 3.59574 3.47437 5.83521 -2.31642 1 -7.31193 0.0320467 4
334 1 12.5061 19.6039 3.54999 -6.38368 -0.00227168 -1.66925 1 -7.29314 0.0270991 4
335 1 16.0508 21.3831 1.76161 0.0290455 0.103287 2.72137 1 -7.34714 0.00461675 4
337 1 13.4109 18.7467 2.6903 -0.0900506 6.86876 -2.25856 1 -7.31492 0.0325461 4
338 1 13.3714 20.5029 0.891429 0 0 0 1 -7.03975 0 4
339 1 14.2629 17.8286 0 0 0 0 1 -3.33593 0 2
340 1 14.2768 19.6286 1.76578 -3.73433 -2.25892 -3.88411 1 -7.38434 0.021246 4
341 1 16.0888 17.8329 1.76297 -4.58991 -1.99561 0.829426 1 -7.34317 0.0160198 4
342 1 16.0457 19.6114 0 0 0 0 1 -3.31406 0 2
343 1 15.1543 18.72 0.891429 0 0 0 1 -7.02771 0 4
344 1 15.1446 20.4984 2.66 0.996611 -4.70146 0.158891 1 -7.36725 0.0143919 4
345 1 16.9845 18.7069 2.69842 -4.59438 2.74334 0.987061 1 -7.3752 0.0184291 4
346 1 16.9371 20.5029 0.891429 0 0 0 1 -7.0319 0 4
347 1 14.286 17.7749 3.53632 3.32423 -0.318859 -4.29768 1 -7.29953 0.0184376 4
348 1 16.0739 19.6019 3.56053 3.50725 1.10836 -1.20124 1 -7.3516 0.00931911 4
304 1 21.3969 17.829 3.58804 -6.259 -6.15983 -1.63976 1 -7.41491 0.0496742 4
351 1 17.8286 17.8286 0 0 0 0 1 -3.32561 0 2
352 1 17.8436 19.6043 1.81851 3.7543 0.550482 2.92051 1 -7.2957 0.0142705 4
353 1 19.6105 17.7805 1.77954 -1.40185 5.43227 2.60775 1 -7.30076 0.0238234 4
354 1 19.6114 19.6114 0 0 0 0 1 -3.34786 0 2
355 1 18.72 18.72 0.891429 0 0 0 1 -6.99227 0 4
356 1 18.7614 20.5005 2.72681 -4.03353 3.25065 5.36315 1 -7.30631 0.0346066 4
357 1 20.5055 18.7001 2.72854 -0.499877 5.23554 -2.07549 1 -7.29339 0.019898 4
358 1 20.5029 20.5029 0.891429 0 0 0 1 -7.03672 0 4
359 1 17.8631 17.7995 3.58412 0.0471014 -5.6895 3.14735 1 -7.37911 0.0263152 4
360 1 19.5951 19.5809 3.58321 -1.62782 1.96574 0.63001 1 -7.3364 0.00430149 4
361 1 0.933082 0.91281 4.43063 -0.244505 1.57218 -4.90468 1 -7.28616 0.0165487 4
362 1 0.913685 2.68285 6.28206 0.0686274 -8.99608 -3.45358 1 -7.35062 0.0577993 4
363 1 2.68543 0.923595 6.27464 -5.15677 1.17079 -4.9827 1 -7.28743 0.032858 4
364 1 2.73652 2.74547 4.51182 -3.68613 11.092 -1.79364 1 -7.27771 0.087038 4
365 1 3.61516 1.77487 5.38507 -2.47367 0.623627 -2.10055 1 -7.33881 0.00679704 4
366 1 1.76279 3.56482 5.37961 -0.994782 -2.79814 4.70138 1 -7.32182 0.0192467 4
367 1 1.78664 1.80231 7.15688 -5.43116 -2.28434 0.292727 1 -7.37299 0.0216613 4
368 1 0.906647 0.901521 8.08087 -9.51454 -2.69399 1.22098 1 -7.29889 0.0617913 4
369 1 2.70028 2.67094 8.05594 -3.97666 6.0502 -4.26532 1 -7.34549 0.0439505 4
370 1 3.55848 3.5165 7.1854 -2.9482 3.7842 -9.03325 1 -7.38279 0.065113 4
411 1 0.0203277 1.80668 5.3583 -2.34024 0.255822 -5.71658 1 -7.27042 0.02379 4
371 1 -0.0377176 3.56575 7.19825 9.03224 -0.770344 -3.56281 1 -7.28673 0.0590485 4
651 1 3.60298 -0.023057 7.19562 6.2263 3.15514 -3.02974 1 -7.30706 0.0360392 4
710 1 -0.0221217 0.00229498 7.14492 -2.57157 -1.40494 -2.48593 1 -7.33863 0.00919118 4
652 1 1.75904 0.0220992 5.36781 -7.23047 3.40196 -7.20951 1 -7.32671 0.0720957 4
372 1 4.45173 0.890741 4.48106 -0.413415 4.70223 -7.40452 1 -7.33931 0.0479946 4
373 1 4.44178 2.66889 6.33029 -2.89098 -1.53576 -6.69731 1 -7.3236 0.0345884 4
374 1 6.27033 0.874017 6.24374 1.79641 3.56515 6.14804 1 -7.34848 0.0334466 4
375 1 6.25544 2.62828 4.4759 1.17662 -4.96172 2.2197 1 -7.36447 0.0192518 4
376 1 7.14368 1.7668 5.39174 -13.519 -5.4404 -4.054 1 -7.37927 0.142408 4
377 1 8.04321 0.868738 4.48508 1.35925 0.302871 -8.3852 1 -7.35688 0.0449708 4
378 1 7.98285 2.68236 6.28253 1.54283 -3.88862 4.73767 1 -7.34083 0.0248642 4
379 1 5.3783 3.54906 5.39492 0.167742 4.69786 6.51724 1 -7.30332 0.0401916 4
380 1 5.34934 1.74543 7.17331 -0.997795 1.07221 3.48925 1 -7.30875 0.00891321 4
381 1 4.48481 0.86922 8.0548 -6.75517 0.169095 -2.29742 1 -7.28813 0.0317059 4
382 1 6.29135 2.65786 8.05941 1.25324 4.77355 -0.296158 1 -7.2805 0.0152153 4
383 1 7.99716 0.876144 8.06524 1.04243 -5.26961 2.45694 1 -7.33544 0.0217177 4
384 1 7.13303 3.55493 7.18753 -0.952741 -1.40207 4.59458 1 -7.3845 0.0149281 4
665 1 7.09007 -0.0247978 7.15017 2.69793 2.00424 -2.81668 1 -7.33997 0.0119689 4
386 1 9.82342 0.892857 6.25532 4.18594 3.82756 -2.58496 1 -7.30747 0.0241839 4
387 1 9.80959 2.66904 4.47486 0.0858108 3.90785 5.47542 1 -7.3564 0.0281703 4
388 1 10.7222 1.78203 5.3278 -3.82673 -0.515272 3.91853 1 -7.36023 0.0188373 4
389 1 11.5977 0.893362 4.44018 -3.64158 0.0321602 0.0322874 1 -7.35627 0.00825533 4
390 1 11.6158 2.65085 6.25475 -1.84603 -3.29294 2.27256 1 -7.34779 0.0120849 4
391 1 8.89253 3.54898 5.32136 3.88986 5.05356 -2.84632 1 -7.33151 0.0303564 4
392 1 12.514 3.54116 5.37511 2.17099 -0.28308 -1.83484 1 -7.38932 0.00507897 4
393 1 8.86587 1.74864 7.1273 1.61473 -10.3863 -6.70932 1 -7.31916 0.0967851 4
394 1 9.79701 2.64177 8.01736 -4.14084 -1.04609 0.45361 1 -7.26185 0.0114817 4
395 1 12.5071 1.77727 7.17316 4.55658 4.47239 0.582453 1 -7.36351 0.0255841 4
396 1 11.6402 0.921133 8.07061 5.93912 -4.02034 -1.1185 1 -7.33863 0.0327939 4
397 1 10.6741 3.55547 7.11921 -5.16032 -1.29963 -6.56194 1 -7.30409 0.0444269 4
398 1 13.4058 0.898803 6.25207 3.38358 -1.27462 9.32541 1 -7.33162 0.0622654 4
399 1 13.3775 2.70054 4.45773 2.44596 12.112 -2.63886 1 -7.23387 0.0993685 4
400 1 14.3312 1.77269 5.38589 -0.229394 -4.28492 -1.26957 1 -7.29949 0.0124641 4
401 1 15.1316 0.866636 4.44786 -6.89391 -5.15583 -2.66762 1 -7.31127 0.0505564 4
402 1 15.2344 2.66633 6.26672 -2.86856 4.35456 -0.949862 1 -7.42901 0.0174859 4
403 1 17.0243 0.842196 6.27259 -2.82372 1.13289 2.10179 1 -7.33229 0.00851126 4
404 1 16.9573 2.65711 4.47042 1.08355 -4.46277 4.05113 1 -7.26738 0.0233423 4
405 1 16.1 3.55909 5.36669 0.351997 1.56264 -3.85331 1 -7.36077 0.0108387 4
406 1 13.3838 2.68383 8.06071 0.694335 -6.91057 0.00484268 1 -7.30349 0.0300247 4
407 1 16.1089 1.7724 7.18838 3.96071 -5.73781 -0.903437 1 -7.27489 0.030764 4
408 1 15.167 0.863825 8.07672 -2.59301 3.04978 -4.79623 1 -7.37632 0.0242925 4
409 1 16.9566 2.67323 8.05082 4.06892 3.64268 -0.166055 1 -7.41619 0.0185811 4
410 1 14.3594 3.53627 7.1482 8.41126 -1.32105 -9.32459 1 -7.34197 0.0992412 4
412 1 17.8872 1.74001 5.40027 3.29288 0.964083 -0.310706 1 -7.31126 0.0073876 4
413 1 18.7186 0.919728 4.46367 -10.4169 -1.95943 -6.81285 1 -7.36806 0.0988202 4
414 1 18.7257 2.68874 6.23966 -2.89716 6.46938 -1.5391 1 -7.38339 0.0327491 4
415 1 20.4871 0.887051 6.27069 -2.42397 4.06323 -5.52374 1 -7.32847 0.0329246 4
416 1 20.4948 2.69309 4.48841 0.271071 -0.0510304 5.91385 1 -7.33149 0.0218159 4
417 1 19.6241 3.55144 5.36759 -7.03533 -0.862223 -10.8407 1 -7.41264 0.104418 4
418 1 19.6065 1.80169 7.16408 5.94962 -5.02343 -0.90993 1 -7.3346 0.0382548 4
419 1 18.7908 0.906261 8.07545 -2.40058 -2.14854 -0.502292 1 -7.28366 0.00661721 4
420 1 20.4958 2.6458 8.08702 1.08215 -0.510059 10.5334 1 -7.30258 0.0699509 4
421 1 17.833 3.54296 7.15274 -3.54003 -1.79863 -2.47058 1 -7.34352 0.0136129 4
423 1 0.870293 4.48996 4.47362 -1.12185 -1.71919 -3.94115 1 -7.36428 0.012291 4
424 1 0.910902 6.25067 6.28147 -1.50958 0.716745 -5.1696 1 -7.36225 0.0183723 4
425 1 2.65798 4.45795 6.30114 0.183534 2.16513 -13.4734 1 -7.26816 0.115929 4
426 1 2.65513 6.25913 4.48393 -1.39069 -10.8355 3.26824 1 -7.30116 0.0809305 4
427 1 3.58003 5.32809 5.39979 -0.34754 -0.0730897 3.9184 1 -7.27023 0.00963516 4
428 1 1.79452 7.11932 5.364 -3.90312 -1.01537 -4.74064 1 -7.35343 0.0241122 4
429 1 0.885059 8.01826 4.5122 2.24577 -1.12943 -11.1234 1 -7.31729 0.0809462 4
430 1 2.70031 8.02463 6.27923 6.32761 -8.2313 -7.40212 1 -7.3405 0.101197 4
431 1 1.77843 5.37963 7.19165 8.80589 3.58898 3.94992 1 -7.38736 0.0659936 4
432 1 0.914804 4.47422 8.06534 -1.93201 -6.71558 3.06022 1 -7.33487 0.0362231 4
433 1 2.66407 6.27824 8.07977 -4.84832 -1.06668 5.73322 1 -7.35533 0.0357981 4