ITEM: TIMESTEP
49125650
ITEM: NUMBER OF ATOMS
3060
ITEM: BOX BOUNDS pp pp mm
0.0000000000000000e+00 2.1394294200000001e+01
0.0000000000000000e+00 2.1394294200000001e+01
-5.3491084073550004e-03 5.3485735499999997e+01
ITEM: ATOMS id type x y z vx vy vz c_clusts c_atom_pe c_atom_ke c_atom_coord
1 1 0 0 0 0 0 0 1 -3.3349 0 2
2 1 1.78286 1.78286 0 0 0 0 1 -3.34471 0 2
3 1 0.891429 0.891429 0.891429 0 0 0 1 -7.02197 0 4
4 1 0.916306 2.72975 2.67223 -4.32302 8.22649 -2.10183 1 -7.35616 0.0565047 4
5 1 2.71596 0.932318 2.68213 -7.61386 -2.12373 -11.0512 1 -7.38859 0.114906 4
6 1 2.67429 2.67429 0.891429 0 0 0 1 -7.00949 0 4
7 1 3.56572 0 0 0 0 0 1 -3.35218 0 2
8 1 3.58435 1.81217 1.82366 -3.40102 -4.27239 -3.76243 1 -7.32915 0.0273719 4
9 1 0 3.56572 0 0 0 0 1 -3.33414 0 2
10 1 1.80596 3.58404 1.79449 -3.96276 -5.73789 2.92482 1 -7.38141 0.0355912 4
11 1 3.56572 3.56572 0 0 0 0 1 -3.32897 0 2
12 1 1.79319 1.7895 3.57279 6.35631 1.82241 1.58656 1 -7.30277 0.0287817 4
13 1 3.57843 3.58361 3.57012 5.05828 11.5769 1.56128 1 -7.29305 0.100864 4
292 1 1.79587 0.00968006 1.77892 5.33631 -0.933388 -3.27153 1 -7.35084 0.0249284 4
56 1 -0.00875949 3.60257 3.5842 1.21719 4.72937 -0.680235 1 -7.39156 0.015132 4
55 1 0.0320853 1.79537 1.78585 -2.43535 -0.091024 1.34137 1 -7.32868 0.00481664 4
291 1 3.56098 0.0436489 3.56158 -2.50403 -3.83401 -9.15084 1 -7.294 0.0651728 4
350 1 0.00846044 0.0026655 3.58252 -0.916193 -0.607209 -9.21318 1 -7.36001 0.0535852 4
14 1 5.34857 1.78286 0 0 0 0 1 -3.3287 0 2
15 1 4.45714 0.891429 0.891429 0 0 0 1 -6.98935 0 4
16 1 4.48984 2.70307 2.69732 -2.60756 -12.7411 7.8111 1 -7.34111 0.14325 4
17 1 6.27949 0.870155 2.6539 -3.33338 -1.55673 8.80671 1 -7.34021 0.0566986 4
18 1 6.24 2.67429 0.891429 0 0 0 1 -7.02732 0 4
19 1 7.13143 0 0 0 0 0 1 -3.32428 0 2
20 1 7.15501 1.7666 1.74996 -4.38882 -1.50078 2.95033 1 -7.36642 0.0188088 4
21 1 8.02286 0.891429 0.891429 0 0 0 1 -7.01715 0 4
22 1 7.99304 2.6201 2.6666 -8.05731 -0.0737489 1.09448 1 -7.34767 0.0411571 4
23 1 5.36052 3.59057 1.77547 -1.78222 -2.6678 8.15736 1 -7.3689 0.0478248 4
24 1 7.13143 3.56572 0 0 0 0 1 -3.31748 0 2
25 1 5.3726 1.76479 3.56447 7.24571 -5.61679 -5.36488 1 -7.30019 0.0702286 4
26 1 7.11843 3.54384 3.53552 1.94039 -0.989064 -3.63942 1 -7.38326 0.0111967 4
306 1 7.19329 0.0389895 3.53086 7.90147 -0.228931 -8.7865 1 -7.32677 0.0869455 4
28 1 8.91429 1.78286 0 0 0 0 1 -3.32864 0 2
29 1 9.82284 0.883518 2.66791 3.62064 -7.15519 -2.86913 1 -7.3719 0.0451494 4
30 1 9.80572 2.67429 0.891429 0 0 0 1 -6.96501 0 4
31 1 10.6971 0 0 0 0 0 1 -3.34906 0 2
32 1 10.7193 1.75982 1.79373 -6.2506 -4.33922 3.73273 1 -7.35779 0.0447102 4
33 1 12.48 1.78286 0 0 0 0 1 -3.34748 0 2
34 1 11.5886 0.891429 0.891429 0 0 0 1 -7.03151 0 4
35 1 11.5748 2.65372 2.67153 -3.03455 4.111 -2.16015 1 -7.35085 0.0191552 4
36 1 8.90716 3.57465 1.77636 8.2206 -3.11277 2.86281 1 -7.26978 0.0531945 4
37 1 10.6971 3.56572 0 0 0 0 1 -3.33999 0 2
38 1 12.4895 3.56039 1.77609 -1.39587 -4.64007 -8.11635 1 -7.3754 0.0556162 4
39 1 8.93864 1.76696 3.52548 -3.00162 1.02609 2.87057 1 -7.34237 0.0113921 4
40 1 12.4444 1.79702 3.61185 -5.53235 5.7948 -7.06192 1 -7.27992 0.0709922 4
41 1 10.6759 3.54154 3.56959 -2.557 -1.7726 2.56103 1 -7.30485 0.0101077 4
319 1 10.7365 0.00564821 3.57631 1.05197 -8.12925 1.12314 1 -7.35725 0.0426068 4
42 1 13.3997 0.889172 2.67224 2.13197 -2.49105 -0.705026 1 -7.24919 0.00700086 4
43 1 13.3714 2.67429 0.891429 0 0 0 1 -7.04173 0 4
44 1 14.2629 0 0 0 0 0 1 -3.32555 0 2
45 1 14.2588 1.81343 1.78501 -5.74398 -7.29506 -4.60712 1 -7.36214 0.0668715 4
46 1 16.0457 1.78286 0 0 0 0 1 -3.31508 0 2
47 1 15.1543 0.891429 0.891429 0 0 0 1 -6.99238 0 4
48 1 15.1714 2.70212 2.67884 1.12568 -1.44863 6.17691 1 -7.37744 0.025843 4
49 1 16.9228 0.905918 2.67472 -7.08083 -0.116393 1.6966 1 -7.33497 0.0330074 4
50 1 16.9371 2.67429 0.891429 0 0 0 1 -7.00763 0 4
51 1 14.2629 3.56572 0 0 0 0 1 -3.3384 0 2
52 1 16.0342 3.56459 1.76982 -6.86268 5.46776 -1.92617 1 -7.37884 0.0502317 4
53 1 16.0614 1.82983 3.57173 -12.7862 0.540182 -3.5788 1 -7.40543 0.109913 4
54 1 14.2589 3.56733 3.57853 5.42113 7.32478 -4.76664 1 -7.29557 0.065829 4
336 1 14.3052 0.00850385 3.58811 0.566422 -7.56585 -6.63876 1 -7.33488 0.063261 4
57 1 17.8286 0 0 0 0 0 1 -3.32718 0 2
58 1 17.8181 1.77162 1.7683 -4.47072 3.90474 -1.10139 1 -7.36282 0.0226858 4
59 1 19.6114 1.78286 0 0 0 0 1 -3.3331 0 2
60 1 18.72 0.891429 0.891429 0 0 0 1 -7.0499 0 4
61 1 18.6667 2.70335 2.67525 6.16801 6.47379 1.02915 1 -7.32604 0.0504249 4
62 1 20.5084 0.911429 2.66086 0.339763 6.14654 -7.7353 1 -7.3573 0.0608299 4
63 1 20.5029 2.67429 0.891429 0 0 0 1 -6.98894 0 4
64 1 17.8286 3.56572 0 0 0 0 1 -3.33805 0 2
65 1 19.5945 3.57699 1.78689 6.32982 -1.24805 3.24066 1 -7.29598 0.0324447 4
66 1 19.6382 1.8345 3.55539 -1.9393 1.92984 1.33711 1 -7.33205 0.00577177 4
67 1 17.8333 3.57859 3.56798 8.13372 -2.79462 4.56645 1 -7.38208 0.0590183 4
68 1 19.6238 0.0193087 1.76133 -2.20862 2.27498 -2.1201 1 -7.38126 0.00905528 4
349 1 17.8507 0.0404203 3.56561 -2.47866 6.50807 -6.14353 1 -7.24225 0.0536791 4
69 1 1.78286 5.34857 0 0 0 0 1 -3.3342 0 2
70 1 0.891429 4.45714 0.891429 0 0 0 1 -7.01777 0 4
71 1 0.869028 6.23491 2.64521 -5.4947 -13.0324 -8.41623 1 -7.32627 0.168596 4
72 1 2.65765 4.46827 2.66122 -0.0432142 -15.2891 4.01898 1 -7.39429 0.155551 4
73 1 2.67429 6.24 0.891429 0 0 0 1 -7.00718 0 4
74 1 3.54133 5.35701 1.79961 -5.83267 -0.630635 3.7793 1 -7.30948 0.0303127 4
75 1 0 7.13143 0 0 0 0 1 -3.34766 0 2
76 1 1.79438 7.14177 1.79825 0.123118 0.427044 -6.49283 1 -7.32323 0.0263625 4
77 1 0.891429 8.02286 0.891429 0 0 0 1 -7.02315 0 4
78 1 2.64688 7.98842 2.69506 -1.01164 2.57274 -2.61204 1 -7.35093 0.0090035 4
79 1 3.56572 7.13143 0 0 0 0 1 -3.33493 0 2
80 1 1.78649 5.35344 3.58805 -0.0941284 -12.1893 2.48925 1 -7.28119 0.0963424 4
81 1 3.5827 7.12298 3.55142 1.58836 -1.51953 -0.42771 1 -7.40852 0.00312133 4
128 1 0.0078454 5.34442 1.77776 -1.42357 -5.4455 -1.20347 1 -7.41348 0.0206199 4
82 1 0.0486544 7.13225 3.56526 3.57396 -6.67711 -3.38605 1 -7.29491 0.0428368 4
83 1 5.34857 5.34857 0 0 0 0 1 -3.3322 0 2
84 1 4.45714 4.45714 0.891429 0 0 0 1 -7.01531 0 4
85 1 4.474 6.27529 2.69632 3.2253 -7.10985 -3.42206 1 -7.32003 0.0452273 4
86 1 6.25467 4.45417 2.68783 2.84604 4.22427 -5.99625 1 -7.38779 0.0385278 4
87 1 6.24 6.24 0.891429 0 0 0 1 -6.99445 0 4
88 1 7.1219 5.33531 1.80528 4.34804 6.6386 -2.77058 1 -7.35927 0.043976 4
89 1 8.02286 4.45714 0.891429 0 0 0 1 -7.01586 0 4
90 1 8.01321 6.26048 2.60605 -0.319073 3.15932 2.7397 1 -7.30683 0.0109479 4
91 1 5.36468 7.13545 1.77641 -4.99328 -2.2943 -0.750284 1 -7.3513 0.0191456 4
92 1 4.45714 8.02286 0.891429 0 0 0 1 -7.01518 0 4
93 1 6.31666 8.01676 2.70637 -10.8139 -1.13924 7.48591 1 -7.26034 0.108475 4
94 1 7.13143 7.13143 0 0 0 0 1 -3.3527 0 2
95 1 8.02286 8.02286 0.891429 0 0 0 1 -7.01009 0 4
96 1 5.35341 5.32388 3.6249 2.37728 4.03988 -0.526869 1 -7.32262 0.0138488 4
97 1 7.15121 7.13994 3.55865 7.07212 0.461374 -4.14306 1 -7.32441 0.041947 4
98 1 8.91429 5.34857 0 0 0 0 1 -3.3445 0 2
99 1 9.84703 4.44964 2.66149 1.78258 -4.30179 -0.75308 1 -7.31425 0.0138491 4
100 1 9.80572 6.24 0.891429 0 0 0 1 -7.0218 0 4
101 1 10.7319 5.35622 1.79097 3.96177 -5.3892 2.22822 1 -7.37329 0.0309371 4
102 1 12.48 5.34857 0 0 0 0 1 -3.32809 0 2
103 1 11.5886 4.45714 0.891429 0 0 0 1 -6.9979 0 4
104 1 11.5959 6.2284 2.66921 3.7715 2.34377 0.188936 1 -7.3571 0.0122949 4
105 1 8.91546 7.13971 1.74688 11.9694 1.54253 -6.58279 1 -7.38096 0.117625 4
106 1 9.76652 7.98768 2.67849 1.46131 2.25638 -0.112833 1 -7.36291 0.004506 4
107 1 10.6971 7.13143 0 0 0 0 1 -3.31483 0 2
108 1 12.482 7.14813 1.75914 2.3574 -7.64187 8.33027 1 -7.33549 0.0829999 4
109 1 11.5886 8.02286 0.891429 0 0 0 1 -7.05319 0 4
110 1 8.9007 5.35103 3.52449 -3.98447 -0.449001 -8.93489 1 -7.21827 0.0596968 4
111 1 12.5163 5.32348 3.55656 -5.82695 4.94969 4.68948 1 -7.39102 0.0500705 4
112 1 10.6929 7.07794 3.54652 0.971312 4.43696 1.54687 1 -7.34875 0.01433 4
113 1 13.363 4.47923 2.65518 0.8183 -9.89126 -4.47339 1 -7.36525 0.0737685 4
114 1 13.3714 6.24 0.891429 0 0 0 1 -6.92795 0 4
115 1 14.3053 5.31372 1.82424 -6.9402 3.81744 4.37645 1 -7.32327 0.0509721 4
116 1 16.0457 5.34857 0 0 0 0 1 -3.3504 0 2
117 1 15.1543 4.45714 0.891429 0 0 0 1 -7.02166 0 4
118 1 15.1772 6.20556 2.66114 4.12895 6.94812 -7.60745 1 -7.28563 0.0766817 4
119 1 16.933 4.45809 2.65074 4.7621 2.19539 -7.37353 1 -7.33825 0.0509557 4
120 1 16.9371 6.24 0.891429 0 0 0 1 -7.00813 0 4
121 1 13.382 7.9859 2.65361 1.17975 -1.80953 9.23051 1 -7.39753 0.0559365 4
122 1 14.2629 7.13143 0 0 0 0 1 -3.32943 0 2
123 1 16.0771 7.14851 1.75193 2.7212 -4.50528 -4.58589 1 -7.29422 0.0303326 4
124 1 15.1543 8.02286 0.891429 0 0 0 1 -7.02307 0 4
125 1 16.9682 8.04934 2.6969 -0.205767 7.21568 11.7472 1 -7.36782 0.118326 4
126 1 16.1091 5.31106 3.55576 -4.76289 -3.18394 3.25695 1 -7.27379 0.0270322 4
127 1 14.2802 7.10628 3.53737 -5.88693 3.10908 0.109727 1 -7.37456 0.0275949 4
129 1 17.8248 5.35144 1.78929 0.204697 -5.2039 -0.0320163 1 -7.36014 0.0168824 4
130 1 19.6114 5.34857 0 0 0 0 1 -3.32279 0 2
131 1 18.72 4.45714 0.891429 0 0 0 1 -7.01081 0 4
132 1 18.6948 6.24817 2.69044 -0.822756 1.34175 -5.80971 1 -7.4103 0.0225505 4
133 1 20.5215 4.48428 2.69897 -0.270828 -2.14637 -6.89476 1 -7.37483 0.0325018 4
134 1 20.5029 6.24 0.891429 0 0 0 1 -6.98913 0 4
135 1 17.8286 7.13143 0 0 0 0 1 -3.31434 0 2
136 1 19.5607 7.11711 1.7808 -1.79438 -4.98645 5.44984 1 -7.29846 0.0359671 4
137 1 18.72 8.02286 0.891429 0 0 0 1 -7.00542 0 4
138 1 20.5301 8.02216 2.68172 -1.99225 4.41015 -4.24354 1 -7.27097 0.0257847 4
139 1 19.6103 5.36806 3.56157 -2.46318 -3.58904 2.41735 1 -7.28777 0.0154312 4
140 1 17.8101 7.12235 3.55156 3.58706 -0.777563 3.13359 1 -7.31578 0.0144969 4
141 1 1.78286 8.91429 0 0 0 0 1 -3.33808 0 2
142 1 0.894381 9.81961 2.65678 0.947985 4.00961 -9.88622 1 -7.33959 0.0714004 4
143 1 2.67429 9.80572 0.891429 0 0 0 1 -7.04448 0 4
144 1 3.54667 8.92217 1.76241 3.34891 -4.36435 3.02049 1 -7.31337 0.024515 4
145 1 0 10.6971 0 0 0 0 1 -3.33045 0 2
146 1 1.81424 10.691 1.77451 -1.07731 0.818006 8.45144 1 -7.36197 0.0455968 4
147 1 1.78286 12.48 0 0 0 0 1 -3.31855 0 2
148 1 0.891429 11.5886 0.891429 0 0 0 1 -7.00107 0 4
149 1 2.73941 11.584 2.67552 -5.11911 -1.64759 -4.00852 1 -7.3003 0.0280017 4
150 1 3.56572 10.6971 0 0 0 0 1 -3.34322 0 2
151 1 3.60609 12.492 1.78995 10.9527 -3.90464 -1.8853 1 -7.39077 0.0863687 4
152 1 1.74071 8.88947 3.57386 -0.488269 1.7058 2.4881 1 -7.31309 0.00581272 4
153 1 1.80453 12.4817 3.53426 9.55379 -0.0603075 2.82802 1 -7.35876 0.0617921 4
154 1 3.59085 10.6794 3.63223 -0.151427 -2.13356 -7.26397 1 -7.33288 0.0356901 4
205 1 0.021523 8.88733 1.77539 7.79864 -5.71945 -1.6322 1 -7.33207 0.0598743 4
204 1 0.0274687 12.5029 1.75508 12.8013 -1.76385 -1.01066 1 -7.37807 0.104571 4
155 1 5.34857 8.91429 0 0 0 0 1 -3.3396 0 2
156 1 4.48113 9.79361 2.67822 4.58063 6.36037 -4.93049 1 -7.31566 0.0533706 4
157 1 6.24 9.80572 0.891429 0 0 0 1 -6.99179 0 4
158 1 7.19075 8.94426 1.80052 1.37748 -1.8236 -4.98777 1 -7.30985 0.0187356 4
159 1 8.03917 9.83906 2.69429 -10.0393 -0.00562694 1.66168 1 -7.40217 0.0644509 4
160 1 5.34448 10.7095 1.75925 -2.3768 7.15698 -1.10072 1 -7.36173 0.0361524 4
161 1 5.34857 12.48 0 0 0 0 1 -3.32579 0 2
162 1 4.45714 11.5886 0.891429 0 0 0 1 -7.0389 0 4
163 1 6.25534 11.5775 2.66627 -3.02662 -1.31464 4.04293 1 -7.31928 0.0169511 4
164 1 7.13143 10.6971 0 0 0 0 1 -3.32439 0 2
165 1 7.16297 12.5034 1.75875 -2.73172 -3.31404 -1.81416 1 -7.32212 0.0135293 4
166 1 8.02286 11.5886 0.891429 0 0 0 1 -7.029 0 4
167 1 5.37447 8.92958 3.57178 -7.09054 -4.04104 0.670055 1 -7.28645 0.0417366 4
168 1 5.40029 12.4806 3.55664 7.09005 3.79776 -1.835 1 -7.31425 0.0423617 4
169 1 7.11327 10.682 3.57566 0.265071 -5.35396 -9.89033 1 -7.34516 0.0787704 4
170 1 8.91429 8.91429 0 0 0 0 1 -3.2998 0 2
171 1 9.80572 9.80572 0.891429 0 0 0 1 -6.95358 0 4
172 1 10.6917 8.87418 1.78567 -4.27243 5.6959 -6.26758 1 -7.31642 0.0560056 4
173 1 12.48 8.91429 0 0 0 0 1 -3.32789 0 2
174 1 11.5497 9.77995 2.64058 2.73142 1.76331 0.270419 1 -7.31348 0.00662449 4
175 1 8.86916 10.7388 1.78173 -4.07851 -1.94089 0.444696 1 -7.34821 0.0128214 4
176 1 8.91429 12.48 0 0 0 0 1 -3.34104 0 2
177 1 9.75453 11.6026 2.69169 0.724234 -0.741917 -8.67174 1 -7.35952 0.047475 4
178 1 10.6971 10.6971 0 0 0 0 1 -3.32742 0 2
179 1 10.6739 12.4866 1.78499 -0.157445 -5.88921 5.58103 1 -7.32693 0.0409902 4
180 1 12.4579 10.688 1.79054 5.36713 -1.34335 0.0575164 1 -7.35732 0.019055 4
181 1 12.48 12.48 0 0 0 0 1 -3.35034 0 2
182 1 11.5886 11.5886 0.891429 0 0 0 1 -7.00896 0 4
183 1 8.9212 8.93232 3.53479 -0.638851 2.51109 -7.40526 1 -7.39538 0.0383113 4
184 1 12.458 8.85314 3.50079 6.98365 -5.62511 1.40274 1 -7.30056 0.0512761 4
185 1 8.90655 12.4782 3.61336 5.49837 0.568838 -5.86264 1 -7.36668 0.0404118 4
186 1 10.6659 10.7215 3.58632 0.366678 7.3843 -3.24892 1 -7.28129 0.0405933 4
187 1 12.506 12.4158 3.57529 -0.326563 5.47427 1.57071 1 -7.24196 0.0202546 4
188 1 13.3714 9.80572 0.891429 0 0 0 1 -6.98565 0 4
189 1 14.2722 8.88278 1.78924 3.52471 1.06026 1.21721 1 -7.34577 0.00935465 4
190 1 16.0457 8.91429 0 0 0 0 1 -3.34385 0 2
191 1 15.1912 9.78492 2.70363 -1.52001 -8.77392 5.83259 1 -7.24586 0.0705279 4
192 1 16.9371 9.80572 0.891429 0 0 0 1 -6.98537 0 4
193 1 13.3925 11.5664 2.69028 1.49912 6.28771 5.27645 1 -7.39536 0.0433355 4
194 1 14.2629 10.6971 0 0 0 0 1 -3.36745 0 2
195 1 14.2836 12.4794 1.82199 4.32588 -2.29742 -1.92739 1 -7.3686 0.0172451 4
196 1 16.0869 10.7554 1.77152 -5.5796 0.720846 -2.89725 1 -7.28246 0.0249254 4
197 1 16.0457 12.48 0 0 0 0 1 -3.3219 0 2
198 1 15.1543 11.5886 0.891429 0 0 0 1 -6.99347 0 4
199 1 16.938 11.6441 2.66368 -1.49185 -0.795406 2.53272 1 -7.31021 0.00577174 4
200 1 16.0788 8.92198 3.58853 0.469534 -8.24968 -4.22145 1 -7.36391 0.0535898 4
201 1 14.2436 10.6864 3.5806 -3.06874 0.689155 -8.5581 1 -7.31349 0.0517442 4
202 1 16.0272 12.5052 3.57332 5.98698 -4.43841 6.15126 1 -7.36781 0.058123 4
203 1 21.4034 10.7224 3.52884 7.46907 9.121 -0.291532 1 -7.41072 0.0865574 4
206 1 17.8196 8.91542 1.81018 4.63778 0.977425 3.33386 1 -7.34935 0.0209004 4
207 1 19.6114 8.91429 0 0 0 0 1 -3.35258 0 2
208 1 18.7455 9.84702 2.63955 -6.12694 -2.32751 8.92564 1 -7.36274 0.0763242 4
209 1 20.5029 9.80572 0.891429 0 0 0 1 -6.97866 0 4
210 1 17.8286 10.6971 0 0 0 0 1 -3.32781 0 2
211 1 17.8246 12.4775 1.81491 -4.75027 -0.345328 5.05592 1 -7.31528 0.03003 4
212 1 19.6247 10.7242 1.78258 9.43748 1.74806 -0.698545 1 -7.38701 0.0576428 4
213 1 19.6114 12.48 0 0 0 0 1 -3.33465 0 2
214 1 18.72 11.5886 0.891429 0 0 0 1 -7.00696 0 4
215 1 20.5454 11.6039 2.64277 3.67549 6.93569 7.96986 1 -7.38965 0.0778853 4
216 1 19.5976 8.96403 3.55067 -4.23209 1.40942 3.8079 1 -7.31955 0.0214097 4
217 1 17.8563 10.7109 3.56689 7.43002 -3.62161 2.38478 1 -7.30634 0.0460648 4
218 1 19.6398 12.5001 3.52137 -3.80642 0.270269 3.68836 1 -7.35197 0.0175312 4
219 1 0.914991 13.3755 2.65684 4.00788 2.16769 0.0816504 1 -7.36386 0.0129269 4
220 1 2.67429 13.3714 0.891429 0 0 0 1 -7.02664 0 4
221 1 0 14.2629 0 0 0 0 1 -3.30675 0 2
222 1 1.78312 14.256 1.76239 4.47322 -4.05146 -1.2974 1 -7.36983 0.0237189 4
223 1 1.78286 16.0457 0 0 0 0 1 -3.33127 0 2
224 1 0.891429 15.1543 0.891429 0 0 0 1 -7.02519 0 4
225 1 0.883809 16.961 2.64563 -1.00486 -1.95932 -0.312049 1 -7.33748 0.00307855 4
226 1 2.65801 15.2107 2.6319 0.206303 4.39855 1.53331 1 -7.28341 0.0135321 4
227 1 2.67429 16.9371 0.891429 0 0 0 1 -6.98459 0 4
228 1 3.56572 14.2629 0 0 0 0 1 -3.32924 0 2
229 1 3.57446 16.0591 1.81181 -5.62708 2.44003 -4.02195 1 -7.31419 0.0334827 4
230 1 1.76293 16.0913 3.54756 -0.500914 -2.79495 -1.25146 1 -7.33192 0.00599322 4
231 1 3.57595 14.303 3.55804 4.7825 -8.64548 -1.56244 1 -7.29409 0.0622787 4
233 1 0.00165081 16.0259 1.74474 5.61077 3.34795 0.886365 1 -7.3385 0.0270601 4
232 1 0.0195406 14.2885 3.58234 -0.718402 -4.8665 3.72293 1 -7.25901 0.023689 4
234 1 4.45384 13.3576 2.66186 -2.78946 -7.55406 -1.79559 1 -7.35169 0.042368 4
235 1 6.24 13.3714 0.891429 0 0 0 1 -6.98926 0 4
236 1 8.07456 13.386 2.67386 0.214943 3.77538 0.882945 1 -7.3172 0.00938573 4
237 1 5.32095 14.267 1.79699 -5.88037 2.92327 -2.2002 1 -7.31241 0.0298548 4
238 1 5.34857 16.0457 0 0 0 0 1 -3.35288 0 2
239 1 4.45714 15.1543 0.891429 0 0 0 1 -7.02264 0 4
240 1 4.42639 16.9678 2.72024 -2.90968 8.45131 4.4502 1 -7.35924 0.0620528 4
241 1 6.25902 15.1621 2.64206 -0.140347 -3.12206 3.39343 1 -7.31541 0.0132467 4
242 1 6.24 16.9371 0.891429 0 0 0 1 -6.9697 0 4
243 1 7.13143 14.2629 0 0 0 0 1 -3.34441 0 2
244 1 7.16505 16.0617 1.78069 -3.33229 1.47376 -4.0419 1 -7.40983 0.018432 4
245 1 8.02286 15.1543 0.891429 0 0 0 1 -6.99442 0 4
246 1 8.00096 16.941 2.68958 1.08268 -2.86116 8.24322 1 -7.30741 0.0481192 4
247 1 5.30559 16.0278 3.59013 3.23633 0.127668 0.212898 1 -7.23989 0.00655753 4
248 1 7.13766 14.2998 3.54956 -3.70915 4.49843 -7.31504 1 -7.35087 0.0544645 4
249 1 9.80572 13.3714 0.891429 0 0 0 1 -6.99438 0 4
250 1 11.6001 13.396 2.64089 5.60018 -4.56657 0.985799 1 -7.27877 0.0331052 4
251 1 8.96478 14.2759 1.80494 4.33155 -7.04737 -1.91639 1 -7.35809 0.0448771 4
252 1 8.91429 16.0457 0 0 0 0 1 -3.31607 0 2
253 1 9.85868 15.1872 2.66346 3.064 0.879609 2.67303 1 -7.35772 0.0107723 4
254 1 9.80572 16.9371 0.891429 0 0 0 1 -7.04821 0 4
255 1 10.6971 14.2629 0 0 0 0 1 -3.33944 0 2
256 1 10.6919 16.06 1.78142 -9.40072 -0.691429 -2.14305 1 -7.313 0.0581622 4
257 1 12.4695 14.3012 1.77241 -0.125521 1.38086 5.47583 1 -7.34231 0.0198599 4
258 1 12.48 16.0457 0 0 0 0 1 -3.32208 0 2
259 1 11.5886 15.1543 0.891429 0 0 0 1 -7.00894 0 4
260 1 11.6445 16.9475 2.67598 11.9009 1.52972 4.99479 1 -7.29675 0.10514 4
261 1 8.97823 16.0965 3.62587 2.66721 2.81533 -1.91358 1 -7.18568 0.0116405 4
262 1 10.7531 14.2932 3.53606 3.89991 6.06804 -10.0107 1 -7.28604 0.0947607 4
263 1 12.4801 16.0207 3.59243 -9.1843 7.58212 2.11983 1 -7.35995 0.0910818 4
264 1 13.3714 13.3714 0.891429 0 0 0 1 -6.97263 0 4
265 1 15.164 13.3645 2.63349 -2.533 6.69975 4.63253 1 -7.29589 0.0452897 4
266 1 16.9371 13.3714 0.891429 0 0 0 1 -6.97936 0 4
267 1 13.3571 15.1725 2.68619 4.58695 7.0503 4.3288 1 -7.34177 0.055698 4
268 1 13.3714 16.9371 0.891429 0 0 0 1 -7.00922 0 4
269 1 14.2629 14.2629 0 0 0 0 1 -3.31972 0 2
270 1 14.2694 16.0294 1.744 -6.58993 -0.471916 4.91282 1 -7.3663 0.0421916 4
271 1 16.0685 14.2668 1.75332 -1.92088 -2.93661 -0.722076 1 -7.39765 0.00798876 4
272 1 16.0457 16.0457 0 0 0 0 1 -3.32975 0 2
273 1 15.1543 15.1543 0.891429 0 0 0 1 -7.03859 0 4
274 1 15.1851 16.9445 2.60971 4.56044 -1.54198 -8.18418 1 -7.23816 0.0561155 4
275 1 16.9738 15.1141 2.63619 5.84362 1.08434 -1.62352 1 -7.31297 0.023627 4
276 1 16.9371 16.9371 0.891429 0 0 0 1 -7.05187 0 4
277 1 14.2401 14.2604 3.58612 -2.53813 0.76579 0.732478 1 -7.31113 0.00470869 4
278 1 16.0615 16.0346 3.56072 -1.74053 3.86758 -3.77897 1 -7.3001 0.0200846 4
279 1 18.7414 13.3946 2.68308 -3.68942 -9.53135 -0.35013 1 -7.36145 0.0650939 4
280 1 20.5029 13.3714 0.891429 0 0 0 1 -7.0158 0 4
281 1 17.8286 14.2629 0 0 0 0 1 -3.32647 0 2
282 1 17.7939 16.059 1.77846 6.4824 6.64754 3.22445 1 -7.33995 0.0601316 4
283 1 19.5903 14.2847 1.77712 -5.64683 -11.5803 -0.989655 1 -7.39144 0.103926 4
284 1 19.6114 16.0457 0 0 0 0 1 -3.32049 0 2
285 1 18.72 15.1543 0.891429 0 0 0 1 -6.991 0 4
286 1 18.704 16.8948 2.67752 -1.07962 -2.46093 8.24542 1 -7.32099 0.0468118 4
287 1 20.4683 15.1478 2.65686 -6.36368 0.122223 6.60564 1 -7.33302 0.0523745 4
288 1 20.5029 16.9371 0.891429 0 0 0 1 -7.00364 0 4
289 1 17.8481 14.2629 3.55146 3.61898 1.21492 4.1011 1 -7.38817 0.0195392 4
290 1 19.6191 16.0315 3.54678 5.21839 -13.4993 2.35278 1 -7.35703 0.133821 4
293 1 0 17.8286 0 0 0 0 1 -3.35072 0 2
294 1 1.75191 17.8243 1.77787 -1.0328 5.16645 -4.70753 1 -7.3578 0.0310713 4
295 1 1.78286 19.6114 0 0 0 0 1 -3.34256 0 2
296 1 0.891429 18.72 0.891429 0 0 0 1 -7.00035 0 4
297 1 0.895601 20.5409 2.70136 5.03819 -5.59797 -6.60044 1 -7.3746 0.0624209 4
298 1 2.61577 18.7141 2.65663 1.62372 1.53178 4.00821 1 -7.34965 0.0131012 4
299 1 2.67429 20.5029 0.891429 0 0 0 1 -7.04437 0 4
300 1 3.56572 17.8286 0 0 0 0 1 -3.33486 0 2
301 1 3.51312 19.6198 1.76958 0.232294 7.76294 9.44302 1 -7.31943 0.0930451 4
302 1 1.76721 19.6296 3.57551 -6.64334 4.51557 10.9939 1 -7.29088 0.115392 4
303 1 3.55389 17.8423 3.564 5.15585 -3.5185 2.91752 1 -7.32689 0.0295494 4
305 1 0.043998 19.5988 1.8321 5.03655 1.17989 1.65425 1 -7.28608 0.0183588 4
27 1 5.35821 21.3894 1.78846 7.26382 7.1526 -3.0865 1 -7.31535 0.0706138 4
307 1 5.33516 17.8681 1.80911 6.08357 -3.16574 6.29677 1 -7.35474 0.0539525 4
308 1 5.34857 19.6114 0 0 0 0 1 -3.34446 0 2
309 1 4.45714 18.72 0.891429 0 0 0 1 -6.99811 0 4
310 1 4.44016 20.472 2.70031 0.624924 -2.94684 -0.806773 1 -7.29526 0.00605328 4
311 1 6.24517 18.7204 2.66727 -3.57201 -8.41909 -1.70253 1 -7.38945 0.0538641 4
312 1 6.24 20.5029 0.891429 0 0 0 1 -6.99828 0 4
313 1 7.13143 17.8286 0 0 0 0 1 -3.32218 0 2
314 1 7.14813 19.6146 1.78996 1.57384 -5.5136 -3.60516 1 -7.38622 0.0285531 4
315 1 8.02286 18.72 0.891429 0 0 0 1 -7.00709 0 4
316 1 8.04796 20.4814 2.63317 -1.40018 -0.417513 6.30478 1 -7.3492 0.0260703 4
317 1 5.34077 19.6002 3.56804 10.4198 -6.52417 -3.12953 1 -7.35445 0.100168 4
318 1 7.13936 17.8634 3.55816 -1.57601 -1.6239 -4.49619 1 -7.37357 0.0157701 4
320 1 8.92454 21.3643 1.77385 -7.10901 -3.54919 6.47471 1 -7.34612 0.06539 4
321 1 12.4806 21.3991 1.79864 -0.136699 5.19753 -2.03138 1 -7.33971 0.0193945 4
322 1 8.91303 17.8206 1.78173 -9.21787 -2.19103 -3.9482 1 -7.30435 0.0655776 4
323 1 8.91429 19.6114 0 0 0 0 1 -3.32721 0 2
324 1 9.80911 18.7022 2.69676 5.60186 0.143704 0.337081 1 -7.32947 0.0196158 4
325 1 9.80572 20.5029 0.891429 0 0 0 1 -7.05348 0 4
326 1 10.6971 17.8286 0 0 0 0 1 -3.32595 0 2
327 1 10.6672 19.622 1.75762 -1.35799 -0.101198 -3.15566 1 -7.33436 0.00735245 4
328 1 12.496 17.8215 1.77561 -2.54215 4.19784 -6.13694 1 -7.44344 0.0384325 4
329 1 12.48 19.6114 0 0 0 0 1 -3.33484 0 2
330 1 11.5886 18.72 0.891429 0 0 0 1 -7.0088 0 4
331 1 11.6109 20.4781 2.67829 -12.4499 -0.436554 3.51029 1 -7.30356 0.104264 4
332 1 8.9573 19.5882 3.54612 -2.09425 -9.18539 -1.6899 1 -7.32803 0.0570224 4
333 1 10.7119 17.8089 3.58652 0.518061 -2.74236 3.44063 1 -7.38427 0.0122163 4
334 1 12.5089 19.6082 3.59119 5.47916 2.09074 -0.843849 1 -7.36967 0.0218499 4
335 1 16.0508 21.3831 1.76161 0.0290455 0.103287 2.72137 1 -7.39624 0.00461675 4
337 1 13.3852 18.676 2.66085 3.65315 1.2119 4.75742 1 -7.27357 0.0233082 4
338 1 13.3714 20.5029 0.891429 0 0 0 1 -7.00885 0 4
339 1 14.2629 17.8286 0 0 0 0 1 -3.33593 0 2
340 1 14.2768 19.6286 1.76578 -3.73433 -2.25892 -3.88411 1 -7.34226 0.021246 4
341 1 16.0888 17.8329 1.76297 -4.58991 -1.99561 0.829426 1 -7.37414 0.0160198 4
342 1 16.0457 19.6114 0 0 0 0 1 -3.30953 0 2
343 1 15.1543 18.72 0.891429 0 0 0 1 -6.98713 0 4
344 1 15.1836 20.5047 2.65547 -5.23789 3.1813 -1.3971 1 -7.3497 0.0245908 4
345 1 16.9586 18.7003 2.66989 8.95574 -3.64873 3.09228 1 -7.37334 0.0641602 4
346 1 16.9371 20.5029 0.891429 0 0 0 1 -7.03875 0 4
347 1 14.2683 17.8285 3.58491 -1.92064 -7.98862 -1.21179 1 -7.31461 0.042932 4
348 1 16.0275 19.5907 3.57567 2.02201 0.231567 -2.11126 1 -7.30634 0.00535259 4
304 1 21.4144 17.8377 3.59244 5.70485 5.16596 2.31061 1 -7.29784 0.0401909 4
351 1 17.8286 17.8286 0 0 0 0 1 -3.31991 0 2
352 1 17.8396 19.6117 1.76798 -1.90247 -0.969876 5.27466 1 -7.40163 0.0201555 4
353 1 19.6105 17.7805 1.77954 -1.40185 5.43227 2.60775 1 -7.37472 0.0238234 4
354 1 19.6114 19.6114 0 0 0 0 1 -3.34666 0 2
355 1 18.72 18.72 0.891429 0 0 0 1 -6.99469 0 4
356 1 18.739 20.5037 2.62946 6.29533 -3.35703 7.22572 1 -7.28016 0.0641795 4
357 1 20.512 18.6866 2.68228 -1.50437 -3.08204 6.93288 1 -7.28271 0.0372379 4
358 1 20.5029 20.5029 0.891429 0 0 0 1 -6.94588 0 4
359 1 17.8246 17.8347 3.5969 4.62429 0.871751 -3.9546 1 -7.32825 0.0235171 4
360 1 19.6463 19.6033 3.60424 -4.39707 -4.80108 -1.29847 1 -7.30635 0.0274307 4
361 1 0.900175 0.90518 4.51474 3.74529 1.43567 -9.03489 1 -7.32019 0.060822 4
362 1 0.881692 2.72978 6.29892 1.44318 1.59495 0.00525562 1 -7.27383 0.00287976 4
363 1 2.71928 0.87771 6.30838 -0.613317 2.74408 -1.29175 1 -7.37495 0.00595958 4
364 1 2.71781 2.62249 4.49193 7.71957 5.68188 4.80153 1 -7.2859 0.0715356 4
365 1 3.59897 1.78334 5.41542 1.92759 2.5472 -3.0642 1 -7.34194 0.0121953 4
366 1 1.80953 3.60317 5.38303 -6.73104 1.00193 -6.1445 1 -7.24748 0.0523247 4
367 1 1.84068 1.80491 7.18781 -3.1793 1.9017 -4.5434 1 -7.33393 0.0213909 4
368 1 0.945657 0.927439 8.05333 3.81953 -0.866829 3.73592 1 -7.32985 0.0182354 4
369 1 2.70281 2.64033 8.11121 -1.67491 -2.24945 -3.34836 1 -7.3199 0.011874 4
370 1 3.59181 3.57045 7.23317 -3.05136 -8.81209 1.718 1 -7.30962 0.0559656 4
411 1 0.0162577 1.78737 5.40303 2.64636 1.16842 -2.28468 1 -7.34263 0.00845765 4
371 1 -0.0137787 3.58603 7.18522 -12.3854 -4.89743 5.8311 1 -7.37101 0.131571 4
651 1 3.56831 -0.00376561 7.16648 -3.41391 -5.58173 6.51311 1 -7.34655 0.0530501 4
710 1 0.0253292 0.0261544 7.21598 -5.11781 -1.74388 -5.95319 1 -7.32165 0.0402545 4
652 1 1.82949 0.0101572 5.42752 -3.17966 -0.324727 -3.25574 1 -7.33152 0.0129561 4
372 1 4.50038 0.844748 4.48996 -6.4967 -0.960528 6.553 1 -7.25082 0.0535732 4
373 1 4.51277 2.65832 6.29972 -5.96368 1.48886 10.6904 1 -7.35466 0.0946502 4
374 1 6.23844 0.859481 6.23848 -0.666446 -1.22077 -4.4117 1 -7.31812 0.0133184 4
375 1 6.26107 2.6711 4.4528 -1.80916 -1.24925 2.20963 1 -7.3164 0.00604758 4
376 1 7.18425 1.78607 5.36847 7.39836 1.52165 7.68781 1 -7.34829 0.0722971 4
377 1 8.05613 0.889354 4.49663 -5.74163 -3.86491 6.37564 1 -7.28924 0.0551175 4
378 1 8.03333 2.68539 6.24566 -8.32851 2.94953 -1.50561 1 -7.35694 0.0499999 4
379 1 5.34967 3.52984 5.34343 3.54172 -2.54913 3.12363 1 -7.36938 0.0179252 4
380 1 5.39192 1.75807 7.15297 -3.42495 -1.63296 -0.281372 1 -7.33938 0.00901024 4
381 1 4.50581 0.879087 8.09829 3.02943 -2.54894 -0.533605 1 -7.35236 0.00993345 4
382 1 6.20627 2.65454 8.06774 9.0944 -5.77334 0.820741 1 -7.29579 0.0726453 4
383 1 7.99166 0.917177 8.04995 -2.38882 -2.10918 -1.16097 1 -7.36056 0.00715975 4
384 1 7.12365 3.59023 7.12824 2.65041 -3.52405 5.50406 1 -7.28204 0.0309585 4
665 1 7.14141 -0.0135144 7.17481 -10.1164 -3.57792 0.383856 1 -7.30015 0.0717594 4
386 1 9.79385 0.879502 6.25351 -0.137035 -2.22992 -0.852651 1 -7.30681 0.00355925 4
387 1 9.80302 2.63811 4.42525 1.1635 0.246211 1.01979 1 -7.32731 0.00152763 4
388 1 10.7183 1.77096 5.34853 5.33902 2.96385 -6.17145 1 -7.32538 0.0469162 4
389 1 11.6091 0.866418 4.45197 2.52913 4.31204 -5.75236 1 -7.35024 0.0361504 4
390 1 11.6031 2.6854 6.24962 4.34684 -1.73843 -2.58854 1 -7.35507 0.0178124 4
391 1 8.89427 3.52154 5.37794 -6.01362 -2.04587 -2.98062 1 -7.28614 0.0306441 4
392 1 12.5105 3.54907 5.38445 -2.72864 -2.19255 0.965309 1 -7.30044 0.00820643 4
393 1 8.90707 1.83703 7.18525 -8.13771 -3.39456 -1.55837 1 -7.33313 0.0499023 4
394 1 9.82275 2.67913 8.06592 -1.18394 -6.18588 -9.74191 1 -7.3998 0.0837609 4
395 1 12.4788 1.78333 7.13606 1.18751 -4.29415 4.75303 1 -7.30701 0.0264166 4
396 1 11.5653 0.886189 8.04584 5.38323 7.9217 6.11488 1 -7.38625 0.0803704 4
397 1 10.7367 3.54844 7.20617 -3.98974 1.78019 -5.16584 1 -7.35209 0.0284903 4
398 1 13.371 0.898493 6.22836 2.44746 3.56878 -4.72294 1 -7.35677 0.0255396 4
399 1 13.3914 2.6177 4.47957 -1.8339 -2.54999 -1.40935 1 -7.3464 0.00737693 4
400 1 14.2796 1.79522 5.3551 6.48684 2.9072 4.34231 1 -7.36483 0.043188 4
401 1 15.2187 0.926448 4.48017 -5.68515 -4.18097 -3.48701 1 -7.3544 0.0385659 4
402 1 15.2007 2.64687 6.28765 12.1868 -3.29782 -2.80501 1 -7.26682 0.104109 4
403 1 16.9637 0.873786 6.27763 10.7588 -5.11299 -3.35878 1 -7.24 0.0953403 4
404 1 16.9573 2.68515 4.45322 -0.70657 -2.79509 -1.41127 1 -7.40377 0.00641314 4
405 1 16.0763 3.55832 5.37692 4.13612 -1.09762 0.201867 1 -7.28503 0.0114234 4
406 1 13.3887 2.68861 8.05859 1.53047 6.57321 -2.1568 1 -7.32563 0.0312465 4
407 1 16.063 1.76763 7.17032 2.81924 5.5335 1.66322 1 -7.39279 0.0257274 4
408 1 15.178 0.8704 8.07676 1.96006 -2.73612 5.12851 1 -7.29701 0.0234218 4
409 1 16.9493 2.70058 8.05887 -2.26281 -8.21188 -1.90568 1 -7.28418 0.0474208 4
410 1 14.2623 3.5681 7.23349 4.31069 -3.73166 -2.16626 1 -7.2599 0.0231543 4
412 1 17.8302 1.79102 5.35197 3.67875 -8.20573 6.11617 1 -7.32358 0.0736172 4
413 1 18.7814 0.907802 4.49038 1.75138 1.2809 2.17967 1 -7.29531 0.00588754 4
414 1 18.7483 2.63558 6.2958 0.0536963 -0.83642 -5.48119 1 -7.30825 0.019137 4
415 1 20.5193 0.904492 6.30345 -3.07952 -6.06559 -2.34603 1 -7.35444 0.0322284 4
416 1 20.5423 2.69977 4.44662 -6.2213 -1.37393 -0.75492 1 -7.29517 0.0256204 4
417 1 19.6496 3.57565 5.42706 2.1469 -2.07857 2.20945 1 -7.24282 0.00859651 4
418 1 19.6191 1.78802 7.17398 -6.64376 7.30693 -1.59437 1 -7.38124 0.0622879 4
419 1 18.728 0.913963 8.07978 9.07578 0.940302 -1.07744 1 -7.33753 0.052542 4
420 1 20.5071 2.69319 8.02273 -2.50567 -6.51916 -1.28291 1 -7.41808 0.031385 4
421 1 17.8828 3.58456 7.16563 -4.12501 -2.27302 -2.06949 1 -7.33299 0.0164726 4
423 1 0.905822 4.45686 4.52683 -5.04578 2.76473 -2.97987 1 -7.35705 0.0261315 4
424 1 0.895027 6.2493 6.29258 2.36303 -0.771699 1.90455 1 -7.37176 0.00610395 4
425 1 2.67786 4.43919 6.35039 -4.18101 -0.77021 6.09112 1 -7.31225 0.0343429 4
426 1 2.69577 6.26337 4.45481 -4.19875 8.16653 -0.737844 1 -7.31363 0.0528229 4
427 1 3.57495 5.35377 5.37174 -0.550058 -3.95162 0.295024 1 -7.22371 0.00996188 4
428 1 1.79529 7.16041 5.43039 3.7635 -4.04105 -3.36399 1 -7.35827 0.0260239 4
429 1 0.879544 8.02223 4.51178 -2.70868 0.221537 9.69202 1 -7.33453 0.063065 4
430 1 2.63915 8.03126 6.30401 -1.36477 3.46336 2.59741 1 -7.35508 0.0128244 4
431 1 1.75685 5.35029 7.17154 -5.02984 -0.251316 -1.76353 1 -7.37649 0.017722 4
432 1 0.867848 4.49474 8.06573 9.39276 4.62781 -3.48492 1 -7.31354 0.0758023 4
433 1 2.64696 6.27981 8.04476 6.43134 -0.563057 0.534432 1 -7.2934 0.02612 4
434 1 0.8819 8.07814 8.06499 -0.669734 -0.813537 7.62499 1 -7.32197 0.0368793 4