ITEM: TIMESTEP
49125925
ITEM: NUMBER OF ATOMS
3060
ITEM: BOX BOUNDS pp pp mm
0.0000000000000000e+00 2.1394294200000001e+01
0.0000000000000000e+00 2.1394294200000001e+01
-5.3491084073550004e-03 5.3485735499999997e+01
ITEM: ATOMS id type x y z vx vy vz c_clusts c_atom_pe c_atom_ke c_atom_coord
1 1 0 0 0 0 0 0 1 -3.33199 0 2
2 1 1.78286 1.78286 0 0 0 0 1 -3.29824 0 2
3 1 0.891429 0.891429 0.891429 0 0 0 1 -7.00783 0 4
4 1 0.873076 2.67176 2.70801 1.32483 -10.5448 2.31489 1 -7.29267 0.0736367 4
5 1 2.64319 0.871917 2.6409 6.33362 -1.69074 7.49667 1 -7.27233 0.0617282 4
6 1 2.67429 2.67429 0.891429 0 0 0 1 -7.03706 0 4
7 1 3.56572 0 0 0 0 0 1 -3.32701 0 2
8 1 3.55025 1.74937 1.74062 -1.65762 -3.33734 0.411545 1 -7.3566 0.00874814 4
9 1 0 3.56572 0 0 0 0 1 -3.30483 0 2
10 1 1.76723 3.54666 1.7743 2.49468 0.488651 -0.266976 1 -7.28289 0.00406661 4
11 1 3.56572 3.56572 0 0 0 0 1 -3.33671 0 2
12 1 1.83237 1.8321 3.5792 -3.46467 2.31368 -3.56107 1 -7.28018 0.0186966 4
13 1 3.62853 3.53613 3.61922 0.614964 -13.3141 3.23728 1 -7.32295 0.117092 4
292 1 1.79587 0.00968006 1.77892 5.33631 -0.933388 -3.27153 1 -7.36719 0.0249284 4
56 1 0.00424554 3.59492 3.57947 -6.27849 -7.68448 -0.599667 1 -7.3304 0.0615145 4
55 1 -0.0132938 1.81893 1.77361 -0.929988 -0.400503 -0.612314 1 -7.35095 0.000871527 4
291 1 3.5541 -0.0411514 3.5618 -0.982305 1.48408 4.08161 1 -7.27652 0.0123408 4
350 1 0.0215382 0.0418822 3.52452 3.15509 2.79067 0.610736 1 -7.32152 0.0112755 4
14 1 5.34857 1.78286 0 0 0 0 1 -3.32925 0 2
15 1 4.45714 0.891429 0.891429 0 0 0 1 -7.0227 0 4
16 1 4.45535 2.60004 2.6996 0.159749 1.57786 -4.88295 1 -7.33673 0.0164061 4
17 1 6.27638 0.885358 2.66918 3.72186 -2.38855 -4.64198 1 -7.33282 0.0255851 4
18 1 6.24 2.67429 0.891429 0 0 0 1 -6.99731 0 4
19 1 7.13143 0 0 0 0 0 1 -3.3341 0 2
20 1 7.15501 1.7666 1.74996 -4.38882 -1.50078 2.95033 1 -7.34812 0.0188088 4
21 1 8.02286 0.891429 0.891429 0 0 0 1 -7.04269 0 4
22 1 8.05423 2.67587 2.65037 10.3491 -1.00651 -0.154705 1 -7.3058 0.0673093 4
23 1 5.34298 3.53152 1.81959 -0.138854 -2.54314 -6.23676 1 -7.27546 0.0282482 4
24 1 7.13143 3.56572 0 0 0 0 1 -3.33822 0 2
25 1 5.37355 1.73213 3.60797 -9.30048 2.00749 7.02048 1 -7.33659 0.0870252 4
26 1 7.11509 3.52388 3.54343 1.15536 2.49417 4.58523 1 -7.30915 0.017789 4
306 1 7.14512 -0.0574862 3.58597 -11.9587 -4.14206 12.3949 1 -7.28952 0.195317 4
28 1 8.91429 1.78286 0 0 0 0 1 -3.32754 0 2
29 1 9.79051 0.827098 2.69304 -9.10019 5.07877 6.05371 1 -7.29545 0.0904103 4
30 1 9.80572 2.67429 0.891429 0 0 0 1 -7.04217 0 4
31 1 10.6971 0 0 0 0 0 1 -3.32621 0 2
32 1 10.6672 1.77516 1.76673 3.27659 3.94719 -2.09337 1 -7.32008 0.0191076 4
33 1 12.48 1.78286 0 0 0 0 1 -3.3333 0 2
34 1 11.5886 0.891429 0.891429 0 0 0 1 -6.99959 0 4
35 1 11.5824 2.68684 2.66604 3.22021 -3.07302 -1.68544 1 -7.30207 0.0141004 4
36 1 8.93547 3.53101 1.78834 -6.81782 2.56301 -2.20006 1 -7.40553 0.0360335 4
37 1 10.6971 3.56572 0 0 0 0 1 -3.34153 0 2
38 1 12.4895 3.56039 1.77609 -1.39587 -4.64007 -8.11635 1 -7.33496 0.0556162 4
39 1 8.89743 1.74754 3.60768 2.15724 0.710814 1.8287 1 -7.29659 0.00529254 4
40 1 12.5222 1.76902 3.50577 6.12809 -2.9553 1.63883 1 -7.2701 0.0304822 4
41 1 10.7263 3.5758 3.58224 2.56089 0.627087 0.0552132 1 -7.36926 0.00432864 4
319 1 10.6664 -0.0665141 3.56787 -5.75104 2.86439 0.372202 1 -7.32685 0.0257794 4
42 1 13.3514 0.885084 2.66584 -3.53236 -3.32167 -5.70248 1 -7.40729 0.0348742 4
43 1 13.3714 2.67429 0.891429 0 0 0 1 -6.99692 0 4
44 1 14.2629 0 0 0 0 0 1 -3.3217 0 2
45 1 14.2696 1.75097 1.78087 2.92859 3.03901 2.87458 1 -7.35624 0.01623 4
46 1 16.0457 1.78286 0 0 0 0 1 -3.34566 0 2
47 1 15.1543 0.891429 0.891429 0 0 0 1 -7.0311 0 4
48 1 15.1191 2.66272 2.65847 -3.11176 -4.93654 -7.80588 1 -7.34814 0.0591207 4
49 1 16.9189 0.911994 2.65407 6.63374 -1.46557 -2.29591 1 -7.33151 0.0320086 4
50 1 16.9371 2.67429 0.891429 0 0 0 1 -7.01227 0 4
51 1 14.2629 3.56572 0 0 0 0 1 -3.3213 0 2
52 1 16.0342 3.56459 1.76982 -6.86268 5.46776 -1.92617 1 -7.35053 0.0502317 4
53 1 16.0118 1.75256 3.56859 5.60233 -7.4853 2.9333 1 -7.30087 0.0597654 4
54 1 14.2779 3.54989 3.55011 -0.432685 -6.4527 3.00426 1 -7.37911 0.0316504 4
336 1 14.2461 -0.0181011 3.54221 -9.5164 2.09914 5.52212 1 -7.35292 0.0780909 4
57 1 17.8286 0 0 0 0 0 1 -3.34235 0 2
58 1 17.8255 1.82632 1.80344 7.43731 -1.29639 2.82168 1 -7.32944 0.0404303 4
59 1 19.6114 1.78286 0 0 0 0 1 -3.33135 0 2
60 1 18.72 0.891429 0.891429 0 0 0 1 -6.97869 0 4
61 1 18.7947 2.6737 2.68034 1.5699 -6.8082 0.400181 1 -7.31591 0.0304842 4
62 1 20.5104 0.924772 2.6659 -1.42765 -5.48963 6.52267 1 -7.32803 0.0465073 4
63 1 20.5029 2.67429 0.891429 0 0 0 1 -7.03902 0 4
64 1 17.8286 3.56572 0 0 0 0 1 -3.33334 0 2
65 1 19.6421 3.56928 1.77527 -3.30195 -1.13353 -5.56632 1 -7.39626 0.0268712 4
66 1 19.6151 1.78404 3.58281 1.73261 -6.06569 1.11543 1 -7.3578 0.0255435 4
67 1 17.8708 3.55708 3.5743 -0.165552 -0.530937 -2.76835 1 -7.30982 0.00496265 4
68 1 19.6238 0.0193087 1.76133 -2.20862 2.27498 -2.1201 1 -7.34342 0.00905528 4
349 1 17.8303 0.00909121 3.56242 -1.01494 -5.55107 4.64871 1 -7.39568 0.0332718 4
69 1 1.78286 5.34857 0 0 0 0 1 -3.32177 0 2
70 1 0.891429 4.45714 0.891429 0 0 0 1 -7.0235 0 4
71 1 0.921609 6.17302 2.66993 3.64658 6.62965 6.98114 1 -7.3091 0.0659686 4
72 1 2.70231 4.40701 2.73482 3.20611 7.17612 -1.10968 1 -7.2759 0.0392173 4
73 1 2.67429 6.24 0.891429 0 0 0 1 -7.00534 0 4
74 1 3.57309 5.31537 1.79192 6.49749 -5.26639 -2.73172 1 -7.34835 0.0481849 4
75 1 0 7.13143 0 0 0 0 1 -3.33143 0 2
76 1 1.75704 7.09125 1.74475 0.572816 -2.06609 6.31613 1 -7.31203 0.027692 4
77 1 0.891429 8.02286 0.891429 0 0 0 1 -7.04095 0 4
78 1 2.68077 8.05097 2.64989 1.33571 -0.0286541 -0.688452 1 -7.27319 0.001406 4
79 1 3.56572 7.13143 0 0 0 0 1 -3.34141 0 2
80 1 1.77428 5.30705 3.57378 2.6361 6.44011 -1.68896 1 -7.40827 0.0319159 4
81 1 3.55068 7.14592 3.59103 -3.06245 -0.932046 1.68122 1 -7.25131 0.00813749 4
128 1 -0.0289363 5.32548 1.75278 0.624206 2.85004 0.375116 1 -7.3281 0.00538591 4
82 1 -0.0258762 7.09904 3.5792 -8.06295 3.05292 2.15875 1 -7.27016 0.0491665 4
83 1 5.34857 5.34857 0 0 0 0 1 -3.36172 0 2
84 1 4.45714 4.45714 0.891429 0 0 0 1 -6.97707 0 4
85 1 4.45972 6.19457 2.67136 -4.85166 5.6568 0.58926 1 -7.26325 0.0347845 4
86 1 6.25577 4.48236 2.65933 -0.351098 -2.0244 2.83853 1 -7.30171 0.00764261 4
87 1 6.24 6.24 0.891429 0 0 0 1 -7.04573 0 4
88 1 7.15432 5.38904 1.73618 0.0626748 -4.41511 1.93649 1 -7.32677 0.0144696 4
89 1 8.02286 4.45714 0.891429 0 0 0 1 -6.98386 0 4
90 1 8.06763 6.24348 2.68632 4.38297 -3.91527 2.07103 1 -7.36135 0.0241682 4
91 1 5.36468 7.13545 1.77641 -4.99328 -2.2943 -0.750284 1 -7.33408 0.0191456 4
92 1 4.45714 8.02286 0.891429 0 0 0 1 -7.00816 0 4
93 1 6.1698 8.02341 2.66397 0.0428379 -2.64796 -7.91586 1 -7.31492 0.0433671 4
94 1 7.13143 7.13143 0 0 0 0 1 -3.29467 0 2
95 1 8.02286 8.02286 0.891429 0 0 0 1 -6.98352 0 4
96 1 5.40142 5.3856 3.53887 -1.42019 -1.23403 -4.39898 1 -7.34846 0.0142479 4
97 1 7.15535 7.13876 3.58173 -8.79027 4.81327 3.82609 1 -7.29865 0.0716259 4
98 1 8.91429 5.34857 0 0 0 0 1 -3.31321 0 2
99 1 9.79724 4.43291 2.67771 -1.76677 1.25329 2.31993 1 -7.37246 0.00627052 4
100 1 9.80572 6.24 0.891429 0 0 0 1 -7.00991 0 4
101 1 10.6935 5.3221 1.78097 -7.22873 4.25943 -0.468907 1 -7.35012 0.043954 4
102 1 12.48 5.34857 0 0 0 0 1 -3.33965 0 2
103 1 11.5886 4.45714 0.891429 0 0 0 1 -7.02579 0 4
104 1 11.6022 6.22212 2.70468 -6.84844 -3.43366 5.08888 1 -7.3365 0.0526496 4
105 1 8.93564 7.12999 1.79105 -6.22358 0.694026 11.0178 1 -7.35004 0.0999658 4
106 1 9.85309 8.06313 2.6357 2.82634 5.99824 0.777412 1 -7.31703 0.0277425 4
107 1 10.6971 7.13143 0 0 0 0 1 -3.33728 0 2
108 1 12.4995 7.09531 1.81931 -1.54632 6.88246 -3.5315 1 -7.35421 0.0387341 4
109 1 11.5886 8.02286 0.891429 0 0 0 1 -6.94997 0 4
110 1 8.92461 5.30378 3.55672 5.47706 -2.04826 12.9316 1 -7.41957 0.125369 4
111 1 12.468 5.34311 3.6023 3.21645 -7.48885 1.40498 1 -7.28857 0.0425755 4
112 1 10.7121 7.17121 3.58328 1.36365 4.31892 -0.29906 1 -7.30235 0.0128233 4
113 1 13.3842 4.423 2.69441 -1.84637 11.272 3.47352 1 -7.26841 0.0887163 4
114 1 13.3714 6.24 0.891429 0 0 0 1 -7.03766 0 4
115 1 14.2298 5.3788 1.72978 4.65573 -0.979338 -5.11795 1 -7.2327 0.030392 4
116 1 16.0457 5.34857 0 0 0 0 1 -3.32727 0 2
117 1 15.1543 4.45714 0.891429 0 0 0 1 -7.00415 0 4
118 1 15.1699 6.27167 2.66708 -9.61124 -1.88942 5.10274 1 -7.31096 0.0759259 4
119 1 16.9695 4.43093 2.68605 -3.87363 -1.13535 9.31299 1 -7.30066 0.0641259 4
120 1 16.9371 6.24 0.891429 0 0 0 1 -7.04925 0 4
121 1 13.3858 7.99714 2.69594 -0.525386 3.63297 -0.989169 1 -7.3082 0.00899592 4
122 1 14.2629 7.13143 0 0 0 0 1 -3.34974 0 2
123 1 16.0771 7.14851 1.75193 2.7212 -4.50528 -4.58589 1 -7.38529 0.0303326 4
124 1 15.1543 8.02286 0.891429 0 0 0 1 -7.01724 0 4
125 1 16.9579 8.00303 2.672 2.19289 -8.55704 -13.0424 1 -7.29459 0.154446 4
126 1 16.0316 5.37999 3.55692 5.08001 8.57815 -5.70297 1 -7.30585 0.0821074 4
127 1 14.2801 7.10153 3.59165 3.54007 1.86388 2.20091 1 -7.34384 0.0129777 4
129 1 17.8341 5.34176 1.75708 1.24133 3.58061 0.601813 1 -7.36622 0.00916452 4
130 1 19.6114 5.34857 0 0 0 0 1 -3.29545 0 2
131 1 18.72 4.45714 0.891429 0 0 0 1 -7.02305 0 4
132 1 18.7238 6.22647 2.66645 3.51198 -2.8504 6.51908 1 -7.32938 0.0391862 4
133 1 20.4938 4.45496 2.64767 1.20645 -0.522112 3.99235 1 -7.35912 0.0109964 4
134 1 20.5029 6.24 0.891429 0 0 0 1 -7.02182 0 4
135 1 17.8286 7.13143 0 0 0 0 1 -3.31927 0 2
136 1 19.5607 7.11711 1.7808 -1.79438 -4.98645 5.44984 1 -7.33782 0.0359671 4
137 1 18.72 8.02286 0.891429 0 0 0 1 -7.00659 0 4
138 1 20.4723 8.0225 2.67082 -1.70895 -6.25093 4.08828 1 -7.31933 0.0365418 4
139 1 19.6386 5.34144 3.58368 2.51323 -1.37462 -4.77518 1 -7.35809 0.0193003 4
140 1 17.8747 7.16491 3.5957 -2.51099 -0.619185 -2.20565 1 -7.3097 0.00719108 4
141 1 1.78286 8.91429 0 0 0 0 1 -3.33875 0 2
142 1 0.906105 9.79675 2.67309 1.77117 -3.94546 11.0499 1 -7.34723 0.0876401 4
143 1 2.67429 9.80572 0.891429 0 0 0 1 -7.01333 0 4
144 1 3.54667 8.92217 1.76241 3.34891 -4.36435 3.02049 1 -7.39753 0.024515 4
145 1 0 10.6971 0 0 0 0 1 -3.3329 0 2
146 1 1.77739 10.7094 1.76507 -3.58343 -1.34604 -9.76483 1 -7.36132 0.0684698 4
147 1 1.78286 12.48 0 0 0 0 1 -3.30236 0 2
148 1 0.891429 11.5886 0.891429 0 0 0 1 -7.05179 0 4
149 1 2.67973 11.5756 2.64382 0.122591 1.36314 -2.44389 1 -7.40331 0.00488342 4
150 1 3.56572 10.6971 0 0 0 0 1 -3.32455 0 2
151 1 3.55452 12.443 1.75893 -12.4605 3.61127 -0.0607004 1 -7.29403 0.10476 4
152 1 1.79797 8.9313 3.5887 2.42033 0.013044 -4.9598 1 -7.31427 0.0189577 4
153 1 1.85489 12.4885 3.53038 -6.59711 1.2928 1.29551 1 -7.363 0.0291741 4
154 1 3.56848 10.6941 3.48809 -3.19419 4.57064 -0.374918 1 -7.27247 0.019441 4
205 1 0.021523 8.88733 1.77539 7.79864 -5.71945 -1.6322 1 -7.37841 0.0598743 4
204 1 0.0274687 12.5029 1.75508 12.8013 -1.76385 -1.01066 1 -7.32734 0.104571 4
155 1 5.34857 8.91429 0 0 0 0 1 -3.31653 0 2
156 1 4.44744 9.81348 2.64702 -6.88948 -6.62773 0.769459 1 -7.32461 0.0572532 4
157 1 6.24 9.80572 0.891429 0 0 0 1 -7.00334 0 4
158 1 7.06405 8.88843 1.77361 -11.4176 -2.34369 1.98604 1 -7.33421 0.087015 4
159 1 7.98565 9.79395 2.62974 2.22384 -4.41412 -5.21142 1 -7.27079 0.0321103 4
160 1 5.36957 10.6997 1.79129 3.02214 -6.80043 1.00688 1 -7.36166 0.0351004 4
161 1 5.34857 12.48 0 0 0 0 1 -3.33883 0 2
162 1 4.45714 11.5886 0.891429 0 0 0 1 -6.98758 0 4
163 1 6.242 11.6067 2.66667 -1.23663 2.51832 -0.864568 1 -7.3851 0.00536448 4
164 1 7.13143 10.6971 0 0 0 0 1 -3.35114 0 2
165 1 7.11395 12.473 1.8052 -1.48552 3.1153 2.87264 1 -7.37098 0.0125506 4
166 1 8.02286 11.5886 0.891429 0 0 0 1 -7.01372 0 4
167 1 5.30859 8.89959 3.59351 -1.59543 6.58776 -1.48996 1 -7.39329 0.0299785 4
168 1 5.32845 12.486 3.55018 -8.55644 -2.07493 -0.0622633 1 -7.35658 0.0482516 4
169 1 7.10649 10.7084 3.56092 -2.10705 6.35432 3.24603 1 -7.34301 0.0344536 4
170 1 8.91429 8.91429 0 0 0 0 1 -3.34463 0 2
171 1 9.80572 9.80572 0.891429 0 0 0 1 -6.98262 0 4
172 1 10.693 8.95947 1.76572 11.194 1.71148 6.20884 1 -7.37038 0.10381 4
173 1 12.48 8.91429 0 0 0 0 1 -3.33657 0 2
174 1 11.6239 9.81952 2.69337 5.59447 2.86528 2.44189 1 -7.34446 0.0283022 4
175 1 8.86916 10.7388 1.78173 -4.07851 -1.94089 0.444696 1 -7.30268 0.0128214 4
176 1 8.91429 12.48 0 0 0 0 1 -3.3461 0 2
177 1 9.8269 11.6046 2.65887 4.84898 0.386997 3.40271 1 -7.31798 0.0219348 4
178 1 10.6971 10.6971 0 0 0 0 1 -3.33533 0 2
179 1 10.7311 12.4648 1.77842 5.9519 4.74245 -5.34656 1 -7.37281 0.0538409 4
180 1 12.5166 10.7072 1.78373 -1.81903 3.52003 0.804128 1 -7.34979 0.0101742 4
181 1 12.48 12.48 0 0 0 0 1 -3.32179 0 2
182 1 11.5886 11.5886 0.891429 0 0 0 1 -7.02007 0 4
183 1 8.90478 8.93126 3.56042 -0.860867 -0.0524048 2.97246 1 -7.29788 0.00596244 4
184 1 12.5115 8.92761 3.61115 -2.34615 9.64244 6.83979 1 -7.36131 0.090416 4
185 1 8.91694 12.5184 3.54238 0.095982 0.891462 0.182922 1 -7.27059 0.000521206 4
186 1 10.7178 10.7126 3.54449 3.96131 -3.93461 -1.19943 1 -7.37279 0.0202984 4
187 1 12.5073 12.5503 3.59431 1.46325 1.5455 -1.84309 1 -7.33824 0.00493375 4
188 1 13.3714 9.80572 0.891429 0 0 0 1 -7.02483 0 4
189 1 14.2739 8.91015 1.79328 -4.92161 -0.166219 -2.18494 1 -7.37568 0.0180652 4
190 1 16.0457 8.91429 0 0 0 0 1 -3.34757 0 2
191 1 15.1679 9.79831 2.65981 2.89046 9.17074 -8.58223 1 -7.28124 0.103392 4
192 1 16.9371 9.80572 0.891429 0 0 0 1 -6.99839 0 4
193 1 13.3803 11.6059 2.67119 1.30225 1.25319 -5.47403 1 -7.2839 0.0206841 4
194 1 14.2629 10.6971 0 0 0 0 1 -3.33773 0 2
195 1 14.25 12.4882 1.75999 -4.62447 5.66904 1.46449 1 -7.30581 0.0346495 4
196 1 16.0869 10.7554 1.77152 -5.5796 0.720846 -2.89725 1 -7.29612 0.0249254 4
197 1 16.0457 12.48 0 0 0 0 1 -3.30696 0 2
198 1 15.1543 11.5886 0.891429 0 0 0 1 -7.04073 0 4
199 1 16.9578 11.5588 2.72588 2.73289 -3.10266 -0.930553 1 -7.36503 0.0111795 4
200 1 16.0313 8.8672 3.58342 -4.01618 7.02731 -1.19358 1 -7.33001 0.0416636 4
201 1 14.3113 10.6953 3.56412 2.23835 1.50875 7.34614 1 -7.30769 0.038125 4
202 1 16.0723 12.4797 3.58859 -5.21946 1.10975 0.755284 1 -7.32754 0.0180782 4
203 1 21.4666 10.7247 3.56059 -3.99622 -7.52726 5.27738 1 -7.2959 0.0625415 4
206 1 17.8572 8.94991 1.7902 -3.96987 -1.48186 -2.10921 1 -7.31786 0.0139452 4
207 1 19.6114 8.91429 0 0 0 0 1 -3.34207 0 2
208 1 18.7381 9.81819 2.72703 7.62666 -0.269165 -1.28319 1 -7.31007 0.037274 4
209 1 20.5029 9.80572 0.891429 0 0 0 1 -7.0012 0 4
210 1 17.8286 10.6971 0 0 0 0 1 -3.3069 0 2
211 1 17.8215 12.4772 1.77029 1.56507 -7.27246 -5.28913 1 -7.31779 0.0518562 4
212 1 19.6474 10.7075 1.80087 -9.05683 -1.84012 6.28783 1 -7.31327 0.0777715 4
213 1 19.6114 12.48 0 0 0 0 1 -3.32184 0 2
214 1 18.72 11.5886 0.891429 0 0 0 1 -6.9973 0 4
215 1 20.528 11.6417 2.69396 -2.17379 -6.81229 -2.04391 1 -7.27185 0.0344265 4
216 1 19.6478 8.9249 3.61016 3.91011 -7.97046 4.31099 1 -7.31393 0.0606254 4
217 1 17.8154 10.688 3.60066 -8.20283 -2.83965 4.13953 1 -7.36912 0.0575655 4
218 1 19.5991 12.4734 3.59142 -0.498718 -2.07601 -0.651701 1 -7.3619 0.0031017 4
219 1 0.923993 13.3762 2.66003 -1.85347 -3.84241 -2.16635 1 -7.3547 0.0142489 4
220 1 2.67429 13.3714 0.891429 0 0 0 1 -7.01742 0 4
221 1 0 14.2629 0 0 0 0 1 -3.32623 0 2
222 1 1.78312 14.256 1.76239 4.47322 -4.05146 -1.2974 1 -7.33454 0.0237189 4
223 1 1.78286 16.0457 0 0 0 0 1 -3.32832 0 2
224 1 0.891429 15.1543 0.891429 0 0 0 1 -7.04564 0 4
225 1 0.869897 16.9229 2.68327 1.25155 -0.414561 1.40989 1 -7.33692 0.00231917 4
226 1 2.68847 15.136 2.68923 1.69245 -9.1328 -1.63037 1 -7.30315 0.0553527 4
227 1 2.67429 16.9371 0.891429 0 0 0 1 -7.04851 0 4
228 1 3.56572 14.2629 0 0 0 0 1 -3.33698 0 2
229 1 3.55203 16.0827 1.75879 5.57557 -6.04353 4.94282 1 -7.33733 0.0572898 4
230 1 1.77688 16.0572 3.56273 1.97242 -1.59967 3.76698 1 -7.33176 0.0128466 4
231 1 3.56594 14.2246 3.52495 -0.00980066 5.02017 1.93446 1 -7.33472 0.0180157 4
233 1 0.00165081 16.0259 1.74474 5.61077 3.34795 0.886365 1 -7.34904 0.0270601 4
232 1 -0.00183294 14.2331 3.49359 1.53382 0.880029 -8.6339 1 -7.39699 0.0483446 4
234 1 4.49491 13.3704 2.65886 0.507506 4.07534 -4.01948 1 -7.31691 0.0205539 4
235 1 6.24 13.3714 0.891429 0 0 0 1 -7.01627 0 4
236 1 8.00028 13.3946 2.66888 -6.29272 -4.1611 -3.80385 1 -7.37652 0.0444302 4
237 1 5.36676 14.2675 1.76431 6.76774 -1.33209 2.6212 1 -7.39438 0.0338895 4
238 1 5.34857 16.0457 0 0 0 0 1 -3.3198 0 2
239 1 4.45714 15.1543 0.891429 0 0 0 1 -6.98973 0 4
240 1 4.46477 16.9428 2.66894 2.66147 -7.77484 -6.28897 1 -7.29174 0.0666511 4
241 1 6.20803 15.1868 2.68736 1.03137 4.77372 -1.46119 1 -7.28406 0.0161751 4
242 1 6.24 16.9371 0.891429 0 0 0 1 -7.00685 0 4
243 1 7.13143 14.2629 0 0 0 0 1 -3.34705 0 2
244 1 7.16505 16.0617 1.78069 -3.33229 1.47376 -4.0419 1 -7.26655 0.018432 4
245 1 8.02286 15.1543 0.891429 0 0 0 1 -7.02921 0 4
246 1 8.07622 16.9434 2.68864 0.986061 -0.217981 -9.62101 1 -7.34939 0.0582489 4
247 1 5.35825 16.0852 3.56793 -5.21339 -1.18007 -3.08939 1 -7.36916 0.0237246 4
248 1 7.14526 14.2745 3.56295 -0.107279 -4.28705 6.37688 1 -7.32461 0.0367573 4
249 1 9.80572 13.3714 0.891429 0 0 0 1 -7.00982 0 4
250 1 11.6187 13.346 2.70274 -5.4145 6.81939 2.19506 1 -7.30481 0.050192 4
251 1 8.9125 14.2757 1.77282 -9.64299 5.21299 0.167927 1 -7.35425 0.0748099 4
252 1 8.91429 16.0457 0 0 0 0 1 -3.32491 0 2
253 1 9.8159 15.1645 2.68721 -6.27648 -6.28621 -4.38684 1 -7.35051 0.0610943 4
254 1 9.80572 16.9371 0.891429 0 0 0 1 -7.01626 0 4
255 1 10.6971 14.2629 0 0 0 0 1 -3.33036 0 2
256 1 10.6919 16.06 1.78142 -9.40072 -0.691429 -2.14305 1 -7.38114 0.0581622 4
257 1 12.4695 14.3012 1.77241 -0.125521 1.38086 5.47583 1 -7.30722 0.0198599 4
258 1 12.48 16.0457 0 0 0 0 1 -3.32208 0 2
259 1 11.5886 15.1543 0.891429 0 0 0 1 -7.05146 0 4
260 1 11.5688 16.9435 2.69974 -11.45 0.732554 -3.39607 1 -7.31999 0.0891142 4
261 1 8.92338 16.0261 3.55026 -1.47358 -5.22822 0.0843958 1 -7.3861 0.0183696 4
262 1 10.7239 14.2647 3.59728 -5.66067 -4.95091 15.9648 1 -7.34907 0.193842 4
263 1 12.5101 16.0823 3.59354 6.34395 -7.27578 -1.82857 1 -7.28666 0.0600805 4
264 1 13.3714 13.3714 0.891429 0 0 0 1 -7.00774 0 4
265 1 15.1562 13.391 2.73006 2.72459 -8.68527 -0.788844 1 -7.33979 0.0519598 4
266 1 16.9371 13.3714 0.891429 0 0 0 1 -7.04589 0 4
267 1 13.3844 15.1764 2.68386 -1.91788 -4.01574 -4.81939 1 -7.34863 0.0267836 4
268 1 13.3714 16.9371 0.891429 0 0 0 1 -7.04837 0 4
269 1 14.2629 14.2629 0 0 0 0 1 -3.3196 0 2
270 1 14.2694 16.0294 1.744 -6.58993 -0.471916 4.91282 1 -7.32554 0.0421916 4
271 1 16.029 14.2624 1.80406 -0.343079 4.38824 5.62432 1 -7.32124 0.0317483 4
272 1 16.0457 16.0457 0 0 0 0 1 -3.34594 0 2
273 1 15.1543 15.1543 0.891429 0 0 0 1 -7.03112 0 4
274 1 15.1681 16.909 2.67291 -5.24797 -1.61547 8.88467 1 -7.32598 0.0678994 4
275 1 16.9126 15.1708 2.68861 -8.39895 0.776398 4.83542 1 -7.35184 0.0588357 4
276 1 16.9371 16.9371 0.891429 0 0 0 1 -7.04149 0 4
277 1 14.2848 14.2852 3.57278 1.13766 1.58542 4.5782 1 -7.34111 0.0154161 4
278 1 16.0558 16.0254 3.54654 0.403118 -2.27555 9.01242 1 -7.30221 0.05388 4
279 1 18.6867 13.322 2.67719 -0.566807 4.45204 2.67173 1 -7.34273 0.0169799 4
280 1 20.5029 13.3714 0.891429 0 0 0 1 -7.01827 0 4
281 1 17.8286 14.2629 0 0 0 0 1 -3.31554 0 2
282 1 17.7939 16.059 1.77846 6.4824 6.64754 3.22445 1 -7.33494 0.0601316 4
283 1 19.6015 14.1974 1.78952 4.91042 5.65258 2.92734 1 -7.31153 0.0402294 4
284 1 19.6114 16.0457 0 0 0 0 1 -3.32883 0 2
285 1 18.72 15.1543 0.891429 0 0 0 1 -6.96668 0 4
286 1 18.7366 16.9258 2.70313 3.5118 0.903353 -6.24736 1 -7.35176 0.0324771 4
287 1 20.5199 15.1035 2.67103 4.6816 -4.43269 -7.1931 1 -7.24885 0.0580767 4
288 1 20.5029 16.9371 0.891429 0 0 0 1 -7.05341 0 4
289 1 17.8178 14.249 3.57668 -6.28379 -3.03352 -0.866898 1 -7.3527 0.0307726 4
290 1 19.6024 16.0298 3.60816 -0.521724 8.92749 0.11048 1 -7.34073 0.0497844 4
293 1 0 17.8286 0 0 0 0 1 -3.32779 0 2
294 1 1.75191 17.8243 1.77787 -1.0328 5.16645 -4.70753 1 -7.28825 0.0310713 4
295 1 1.78286 19.6114 0 0 0 0 1 -3.33917 0 2
296 1 0.891429 18.72 0.891429 0 0 0 1 -7.01819 0 4
297 1 0.908532 20.489 2.65376 -7.40831 2.07381 0.747779 1 -7.30281 0.0371855 4
298 1 2.67344 18.7543 2.73826 0.679786 2.05643 3.29411 1 -7.28522 0.00967385 4
299 1 2.67429 20.5029 0.891429 0 0 0 1 -7.03078 0 4
300 1 3.56572 17.8286 0 0 0 0 1 -3.31124 0 2
301 1 3.51312 19.6198 1.76958 0.232294 7.76294 9.44302 1 -7.31048 0.0930451 4
302 1 1.76469 19.6428 3.6232 4.68801 -5.53999 -10.6011 1 -7.37803 0.102733 4
303 1 3.55237 17.8881 3.61893 -1.15453 4.56807 -4.10494 1 -7.3096 0.0243062 4
305 1 -0.0256829 19.6118 1.75885 -7.93963 -1.60561 -5.00102 1 -7.37405 0.0564079 4
27 1 5.36103 21.395 1.77772 -6.53268 -3.71466 0.38871 1 -7.37728 0.0352453 4
307 1 5.35302 17.7893 1.77936 -3.61218 0.951003 -9.10912 1 -7.34326 0.0603307 4
308 1 5.34857 19.6114 0 0 0 0 1 -3.33118 0 2
309 1 4.45714 18.72 0.891429 0 0 0 1 -6.97314 0 4
310 1 4.47957 20.5126 2.62712 4.80054 3.61073 -3.54083 1 -7.29291 0.0302624 4
311 1 6.26367 18.685 2.66754 4.25506 -0.579443 -0.934185 1 -7.33236 0.0120215 4
312 1 6.24 20.5029 0.891429 0 0 0 1 -7.02522 0 4
313 1 7.13143 17.8286 0 0 0 0 1 -3.32096 0 2
314 1 7.11847 19.5783 1.77112 -1.25279 2.56518 4.07178 1 -7.34374 0.015392 4
315 1 8.02286 18.72 0.891429 0 0 0 1 -7.0269 0 4
316 1 8.04049 20.4616 2.69209 -2.96926 -2.77273 -4.23516 1 -7.32201 0.021437 4
317 1 5.39779 19.6092 3.53035 -6.95412 5.26657 -2.16411 1 -7.35985 0.0502795 4
318 1 7.11593 17.781 3.5913 4.85102 -1.83955 6.27186 1 -7.32801 0.0412373 4
320 1 8.91276 21.3806 1.78446 3.38992 0.953382 -3.46422 1 -7.36103 0.015188 4
321 1 12.4732 21.3841 1.7737 -3.304 -4.72446 1.05098 1 -7.38928 0.021375 4
322 1 8.91303 17.8206 1.78173 -9.21787 -2.19103 -3.9482 1 -7.38638 0.0655776 4
323 1 8.91429 19.6114 0 0 0 0 1 -3.33739 0 2
324 1 9.83236 18.6899 2.64803 -5.80009 1.93893 -0.926724 1 -7.29097 0.0238136 4
325 1 9.80572 20.5029 0.891429 0 0 0 1 -7.03893 0 4
326 1 10.6971 17.8286 0 0 0 0 1 -3.32595 0 2
327 1 10.6672 19.622 1.75762 -1.35799 -0.101198 -3.15566 1 -7.35316 0.00735245 4
328 1 12.496 17.8215 1.77561 -2.54215 4.19784 -6.13694 1 -7.28429 0.0384325 4
329 1 12.48 19.6114 0 0 0 0 1 -3.32826 0 2
330 1 11.5886 18.72 0.891429 0 0 0 1 -6.97644 0 4
331 1 11.5722 20.4939 2.66092 8.25244 -0.973849 -6.33974 1 -7.36122 0.0679959 4
332 1 8.89419 19.5773 3.57962 2.8695 6.35091 2.18754 1 -7.30103 0.0332086 4
333 1 10.7538 17.85 3.58411 -3.72238 4.44404 -4.43511 1 -7.31629 0.0331602 4
334 1 12.4819 19.6077 3.5525 -7.29116 2.1737 2.95679 1 -7.33748 0.0414714 4
335 1 16.0508 21.3831 1.76161 0.0290455 0.103287 2.72137 1 -7.34362 0.00461675 4
337 1 13.4059 18.7598 2.67548 -2.86688 0.578409 -6.05997 1 -7.30805 0.0281814 4
338 1 13.3714 20.5029 0.891429 0 0 0 1 -7.04002 0 4
339 1 14.2629 17.8286 0 0 0 0 1 -3.33593 0 2
340 1 14.2768 19.6286 1.76578 -3.73433 -2.25892 -3.88411 1 -7.38818 0.021246 4
341 1 16.0888 17.8329 1.76297 -4.58991 -1.99561 0.829426 1 -7.31844 0.0160198 4
342 1 16.0457 19.6114 0 0 0 0 1 -3.31697 0 2
343 1 15.1543 18.72 0.891429 0 0 0 1 -7.0231 0 4
344 1 15.1542 20.483 2.65936 4.23029 -3.82621 -0.349819 1 -7.35619 0.020327 4
345 1 16.9655 18.7139 2.69806 -5.99607 1.17925 -1.16951 1 -7.34361 0.0240949 4
346 1 16.9371 20.5029 0.891429 0 0 0 1 -7.00201 0 4
347 1 14.2933 17.7823 3.52979 0.583561 4.71441 0.692066 1 -7.30567 0.0143439 4
348 1 16.0792 19.6048 3.55709 -0.486459 0.610216 -0.775868 1 -7.37284 0.000753743 4
304 1 21.3785 17.8092 3.58334 -4.13976 -4.85003 -1.15154 1 -7.3832 0.0261335 4
351 1 17.8286 17.8286 0 0 0 0 1 -3.3295 0 2
352 1 17.8573 19.6085 1.82327 3.85193 1.83029 -0.153279 1 -7.29818 0.0113349 4
353 1 19.6105 17.7805 1.77954 -1.40185 5.43227 2.60775 1 -7.31229 0.0238234 4
354 1 19.6114 19.6114 0 0 0 0 1 -3.3383 0 2
355 1 18.72 18.72 0.891429 0 0 0 1 -6.99611 0 4
356 1 18.7414 20.5137 2.73108 -7.33068 4.17775 -2.78922 1 -7.31699 0.0491544 4
357 1 20.5019 18.7181 2.71068 -1.71334 5.03412 -8.13335 1 -7.31521 0.0587752 4
358 1 20.5029 20.5029 0.891429 0 0 0 1 -7.05665 0 4
359 1 17.8563 17.7857 3.59658 -3.79549 -1.92407 3.53828 1 -7.35962 0.0190632 4
360 1 19.5969 19.5928 3.59029 2.3502 4.88012 3.08795 1 -7.37073 0.0241965 4
361 1 0.924187 0.920581 4.42191 -4.96806 2.97769 -0.294134 1 -7.32134 0.0209351 4
362 1 0.905586 2.65439 6.26913 -4.63174 -7.2483 -4.02062 1 -7.3792 0.0561156 4
363 1 2.66854 0.918411 6.25809 -4.68074 -4.05164 -4.58873 1 -7.29406 0.0369606 4
364 1 2.71886 2.76516 4.50331 -6.6817 -0.265462 -2.91155 1 -7.24309 0.0331085 4
365 1 3.59781 1.78329 5.37789 -7.65305 4.12472 -2.36397 1 -7.31245 0.0505229 4
366 1 1.76449 3.56423 5.39547 1.79342 2.39203 3.94896 1 -7.36229 0.0152696 4
367 1 1.77124 1.79237 7.1623 -3.72079 -3.60036 2.62394 1 -7.34864 0.0209707 4
368 1 0.875571 0.894014 8.0836 -8.31291 -1.75973 0.499812 1 -7.29452 0.0450953 4
369 1 2.67675 2.6899 8.04701 -9.75335 4.95707 -1.09482 1 -7.35764 0.0752507 4
370 1 3.55101 3.54253 7.15619 -1.37141 10.8612 -7.85179 1 -7.3521 0.112968 4
411 1 0.0103307 1.80334 5.34191 -3.37857 -2.16025 -3.66237 1 -7.33269 0.0183581 4
371 1 -5.16396e-05 3.56118 7.1832 12.2557 -2.05928 -5.01356 1 -7.31614 0.111775 4
651 1 3.6163 -0.00832584 7.18026 0.92445 5.25274 -5.58214 1 -7.27502 0.0371004 4
710 1 -0.0259026 0.000873496 7.1458 0.333623 0.567858 2.64854 1 -7.3348 0.00463617 4
652 1 1.74209 0.0336288 5.34557 -2.47418 3.06053 -5.75036 1 -7.3469 0.0302219 4
372 1 4.45522 0.898413 4.45615 1.92218 -0.369886 -6.40815 1 -7.36235 0.0279445 4
373 1 4.44267 2.66085 6.2988 3.19052 -2.78071 -11.1589 1 -7.33667 0.0886535 4
374 1 6.26639 0.885098 6.26802 -4.27875 2.67439 7.74304 1 -7.36309 0.0531644 4
375 1 6.25762 2.61734 4.48289 -0.403638 -1.06475 1.87294 1 -7.36919 0.00299045 4
376 1 7.10176 1.74841 5.3741 -9.96511 -4.99733 -5.82716 1 -7.32033 0.098488 4
377 1 8.04315 0.870084 4.45499 -1.9139 0.101651 -8.37165 1 -7.35113 0.0459089 4
378 1 7.99397 2.66608 6.29031 4.48548 -5.52988 -0.530694 1 -7.29499 0.0317317 4
379 1 5.37577 3.56435 5.41575 -1.35613 4.1058 5.52071 1 -7.26509 0.0306077 4
380 1 5.35196 1.75466 7.1841 2.22398 4.36201 2.79247 1 -7.33123 0.0197752 4
381 1 4.46098 0.871978 8.05622 -6.89203 1.6647 3.02008 1 -7.26886 0.0369673 4
382 1 6.28146 2.67329 8.06334 -6.80755 3.86389 2.73069 1 -7.32597 0.0427788 4
383 1 8.00029 0.859206 8.07068 1.01086 -4.63652 0.590433 1 -7.32837 0.0142335 4
384 1 7.12972 3.55322 7.19814 -0.795228 0.0694246 1.62382 1 -7.40515 0.00203782 4
665 1 7.10778 -0.015942 7.14484 7.14326 2.94676 -0.18774 1 -7.39864 0.0371867 4
386 1 9.8343 0.903278 6.24182 1.93221 1.84404 -5.06883 1 -7.33736 0.0204324 4
387 1 9.81004 2.67907 4.4876 0.24326 1.82297 1.87837 1 -7.33432 0.00430138 4
388 1 10.7083 1.78007 5.34698 -4.00323 -0.470429 6.9187 1 -7.37853 0.0399072 4
389 1 11.5863 0.891278 4.43868 -2.87708 -0.996174 -0.793383 1 -7.31416 0.00616166 4
390 1 11.6085 2.64329 6.26089 -2.20187 -1.05615 1.15797 1 -7.35612 0.00454657 4
391 1 8.90639 3.56465 5.32241 3.96347 4.0141 3.50451 1 -7.32613 0.0274513 4
392 1 12.5172 3.54038 5.36949 -0.645315 -0.117425 -1.48766 1 -7.38761 0.00164528 4
393 1 8.87842 1.72017 7.11212 5.5419 -6.02948 -1.85415 1 -7.29083 0.0438843 4
394 1 9.78361 2.6403 8.02292 -3.43406 -0.0395401 2.51416 1 -7.26037 0.0112755 4
395 1 12.5219 1.79381 7.17081 3.88351 4.56055 -1.68892 1 -7.39838 0.0241082 4
396 1 11.6517 0.900981 8.06497 0.712676 -7.20246 -1.97178 1 -7.3205 0.0350247 4
397 1 10.6625 3.54913 7.10647 -1.59808 -2.24441 -0.990657 1 -7.29091 0.00533585 4
398 1 13.4141 0.897692 6.28474 1.28997 0.808678 9.14675 1 -7.34307 0.0535168 4
399 1 13.3922 2.72867 4.44941 5.8418 3.49117 -2.10291 1 -7.22884 0.0315801 4
400 1 14.3204 1.76242 5.37636 -5.90482 -1.50041 -4.055 1 -7.25288 0.0333379 4
401 1 15.1181 0.854083 4.44114 -0.979203 -2.21238 -1.1443 1 -7.32772 0.00445838 4
402 1 15.225 2.67596 6.26235 -2.21929 0.918805 -2.00864 1 -7.352 0.00610233 4
403 1 17.002 0.854802 6.27901 -9.93427 6.17618 1.30959 1 -7.35684 0.0862371 4
404 1 16.9618 2.64093 4.48335 1.50076 -4.7984 3.20757 1 -7.26805 0.0221368 4
405 1 16.0978 3.56465 5.35088 -1.66342 1.46879 -5.16645 1 -7.40017 0.0196789 4
406 1 13.3916 2.66002 8.05779 4.05806 -6.31136 -1.62213 1 -7.29411 0.0366811 4
407 1 16.1164 1.75147 7.17925 0.314145 -5.86089 -4.38322 1 -7.28482 0.0334002 4
408 1 15.1607 0.879279 8.05887 -0.855738 5.87696 -5.29397 1 -7.40571 0.0393978 4
409 1 16.9726 2.68514 8.0508 5.07768 2.41288 0.131794 1 -7.40572 0.0196825 4
410 1 14.3735 3.53672 7.12493 -0.587784 1.65782 -4.1767 1 -7.30849 0.0127838 4
412 1 17.8868 1.7508 5.39158 -3.78422 5.00223 -4.51456 1 -7.32361 0.0371737 4
413 1 18.691 0.905795 4.44153 -5.17527 -6.10641 -5.62993 1 -7.3368 0.0596084 4
414 1 18.7199 2.70248 6.24237 -0.323165 1.34708 2.87399 1 -7.36287 0.0063356 4
415 1 20.4838 0.903446 6.24929 0.814551 4.92036 -6.96553 1 -7.36656 0.0456811 4
416 1 20.5011 2.69158 4.50175 2.87084 -0.989461 1.38454 1 -7.3517 0.0069324 4
417 1 19.6007 3.55356 5.33756 -6.18949 2.07224 -5.9422 1 -7.3888 0.0484955 4
418 1 19.6305 1.78275 7.16123 7.46053 -5.49436 -0.702985 1 -7.32518 0.0537413 4
419 1 18.7695 0.899358 8.07189 -9.64643 -1.7521 -1.74335 1 -7.3559 0.0617214 4
420 1 20.5033 2.65098 8.1173 3.20592 3.41517 6.74569 1 -7.28847 0.0419799 4
421 1 17.8248 3.54621 7.14298 -1.37797 3.79421 -3.0305 1 -7.36782 0.0158586 4
423 1 0.869965 4.47442 4.46599 0.831482 -7.08276 -0.648327 1 -7.34507 0.0319163 4
424 1 0.900012 6.25392 6.26284 -4.88575 1.17197 -5.41695 1 -7.31783 0.0339766 4
425 1 2.66141 4.46306 6.25724 1.79276 0.88814 -11.3661 1 -7.3008 0.0829015 4
426 1 2.65541 6.21607 4.49036 1.37011 -13.5804 0.483654 1 -7.30207 0.116106 4
427 1 3.57483 5.33195 5.40905 -2.73565 2.27617 1.06834 1 -7.37046 0.00859327 4
428 1 1.77938 7.11967 5.35467 -4.71763 0.769004 -1.06694 1 -7.34742 0.0149293 4
429 1 0.891283 8.0149 4.46762 1.26807 -0.775516 -14.2105 1 -7.33615 0.127066 4
430 1 2.70635 7.99433 6.25364 -3.13601 -8.60816 -7.29688 1 -7.29176 0.085384 4
431 1 1.80665 5.38634 7.20084 6.89425 0.0598712 1.01134 1 -7.30234 0.0302232 4
432 1 0.903444 4.45434 8.07477 -4.17626 -4.4138 2.04178 1 -7.34937 0.0255765 4
433 1 2.64556 6.27179 8.09765 -5.10988 -2.78177 4.45503 1 -7.38297 0.033422 4