ITEM: TIMESTEP
49126600
ITEM: NUMBER OF ATOMS
3060
ITEM: BOX BOUNDS pp pp mm
0.0000000000000000e+00 2.1394294200000001e+01
0.0000000000000000e+00 2.1394294200000001e+01
-5.3491084073550004e-03 5.3485735499999997e+01
ITEM: ATOMS id type x y z vx vy vz c_clusts c_atom_pe c_atom_ke c_atom_coord
1 1 0 0 0 0 0 0 1 -3.32144 0 2
2 1 1.78286 1.78286 0 0 0 0 1 -3.33228 0 2
3 1 0.891429 0.891429 0.891429 0 0 0 1 -6.99886 0 4
4 1 0.900522 2.70527 2.63265 -2.04341 3.45286 2.26251 1 -7.28014 0.0132058 4
5 1 2.67692 0.886129 2.62173 2.3983 -2.05479 -2.89648 1 -7.37059 0.01143 4
6 1 2.67429 2.67429 0.891429 0 0 0 1 -7.01128 0 4
7 1 3.56572 0 0 0 0 0 1 -3.32852 0 2
8 1 3.55454 1.77994 1.76395 3.29768 -6.42178 0.442947 1 -7.38991 0.0325592 4
9 1 0 3.56572 0 0 0 0 1 -3.349 0 2
10 1 1.78283 3.59339 1.80021 -7.24363 2.42018 3.02959 1 -7.39061 0.0420174 4
11 1 3.56572 3.56572 0 0 0 0 1 -3.34897 0 2
12 1 1.81469 1.73168 3.57164 4.81874 -0.805803 0.461596 1 -7.24432 0.0149897 4
13 1 3.54407 3.58296 3.55702 -7.30228 7.85803 1.41344 1 -7.26335 0.0728673 4
292 1 1.79587 0.00968006 1.77892 5.33631 -0.933388 -3.27153 1 -7.39419 0.0249284 4
55 1 -0.0184358 1.7855 1.78606 -1.43005 -0.144214 1.2121 1 -7.38079 0.0022003 4
350 1 -0.0449515 -0.0358934 3.54276 -7.38733 0.0631025 -3.95087 1 -7.26936 0.0436856 4
14 1 5.34857 1.78286 0 0 0 0 1 -3.34888 0 2
15 1 4.45714 0.891429 0.891429 0 0 0 1 -7.03765 0 4
16 1 4.44621 2.65289 2.69454 -3.43111 -0.89511 -0.387253 1 -7.26067 0.00791957 4
17 1 6.23612 0.847811 2.64944 -9.80172 2.88453 7.06613 1 -7.38127 0.0960556 4
18 1 6.24 2.67429 0.891429 0 0 0 1 -6.98414 0 4
19 1 7.13143 0 0 0 0 0 1 -3.33678 0 2
20 1 7.15501 1.7666 1.74996 -4.38882 -1.50078 2.95033 1 -7.36404 0.0188088 4
21 1 8.02286 0.891429 0.891429 0 0 0 1 -6.95004 0 4
22 1 8.02533 2.61822 2.6499 -2.23527 2.22227 -5.8497 1 -7.32911 0.0274825 4
23 1 5.36872 3.60947 1.82244 0.172539 4.68873 -0.235765 1 -7.2657 0.0137367 4
24 1 7.13143 3.56572 0 0 0 0 1 -3.32747 0 2
25 1 5.40469 1.73813 3.51228 0.726332 -0.651035 -5.4039 1 -7.29417 0.0187683 4
26 1 7.169 3.56314 3.54928 5.63454 0.470219 5.31797 1 -7.2575 0.0375011 4
28 1 8.91429 1.78286 0 0 0 0 1 -3.32118 0 2
29 1 9.84683 0.899386 2.64981 -4.37868 0.897839 -10.4614 1 -7.38751 0.0805538 4
30 1 9.80572 2.67429 0.891429 0 0 0 1 -6.99045 0 4
31 1 10.6971 0 0 0 0 0 1 -3.34056 0 2
32 1 10.6976 1.77102 1.75494 -6.82332 -2.03576 2.12807 1 -7.38429 0.0343771 4
33 1 12.48 1.78286 0 0 0 0 1 -3.32814 0 2
34 1 11.5886 0.891429 0.891429 0 0 0 1 -6.98902 0 4
35 1 11.6108 2.65955 2.61708 0.412268 7.66951 -5.91469 1 -7.36371 0.0584924 4
36 1 8.9153 3.58866 1.79587 2.48722 4.08491 -6.46927 1 -7.29414 0.040286 4
37 1 10.6971 3.56572 0 0 0 0 1 -3.33063 0 2
38 1 12.4895 3.56039 1.77609 -1.39587 -4.64007 -8.11635 1 -7.37487 0.0556162 4
39 1 8.90955 1.74515 3.49895 -6.52167 -4.12464 3.9081 1 -7.30878 0.0465687 4
40 1 12.4701 1.80363 3.56361 2.41311 4.41072 -8.09161 1 -7.34434 0.0564862 4
41 1 10.6818 3.53317 3.51416 2.61252 -0.4759 -4.20363 1 -7.27089 0.0153878 4
42 1 13.4006 0.888468 2.7 -0.430913 9.33203 2.58674 1 -7.26439 0.0584854 4
43 1 13.3714 2.67429 0.891429 0 0 0 1 -7.0425 0 4
44 1 14.2629 0 0 0 0 0 1 -3.31568 0 2
45 1 14.241 1.7737 1.78403 -4.00478 -1.16476 -6.02515 1 -7.31849 0.0334226 4
46 1 16.0457 1.78286 0 0 0 0 1 -3.32469 0 2
47 1 15.1543 0.891429 0.891429 0 0 0 1 -7.01373 0 4
48 1 15.1627 2.63552 2.72304 5.18044 0.769513 5.13833 1 -7.28405 0.0335062 4
49 1 16.9225 0.861844 2.6894 2.70341 0.345668 0.241152 1 -7.37926 0.00465952 4
50 1 16.9371 2.67429 0.891429 0 0 0 1 -7.02052 0 4
51 1 14.2629 3.56572 0 0 0 0 1 -3.33532 0 2
52 1 16.0342 3.56459 1.76982 -6.86268 5.46776 -1.92617 1 -7.3256 0.0502317 4
53 1 16.0546 1.75028 3.55153 2.19504 -1.31245 -2.16024 1 -7.36903 0.00697575 4
54 1 14.2798 3.54156 3.55524 -0.187359 4.20643 -8.15413 1 -7.30035 0.0524201 4
336 1 14.2827 -0.0107919 3.52214 3.66234 -4.27694 -6.0798 1 -7.35576 0.0427413 4
56 1 21.4276 3.56097 3.56248 3.0243 -4.02249 2.78669 1 -7.32736 0.0205976 4
57 1 17.8286 0 0 0 0 0 1 -3.32241 0 2
58 1 17.8011 1.77313 1.7687 0.0149052 -4.86458 -1.93597 1 -7.35959 0.0170622 4
59 1 19.6114 1.78286 0 0 0 0 1 -3.32695 0 2
60 1 18.72 0.891429 0.891429 0 0 0 1 -7.02435 0 4
61 1 18.682 2.68019 2.65515 -0.281963 -1.6422 2.85094 1 -7.31442 0.00678704 4
62 1 20.5027 0.913893 2.65288 -3.08802 -2.00626 -3.10892 1 -7.41393 0.0144567 4
63 1 20.5029 2.67429 0.891429 0 0 0 1 -6.98827 0 4
64 1 17.8286 3.56572 0 0 0 0 1 -3.33241 0 2
65 1 19.5855 3.57916 1.8047 -7.96867 2.17769 -2.64332 1 -7.34006 0.0468246 4
66 1 19.6149 1.76901 3.54499 4.0907 0.0626012 -1.14548 1 -7.3494 0.0112347 4
67 1 17.8331 3.56633 3.56161 -4.57645 1.91223 -0.547381 1 -7.34996 0.0154985 4
68 1 19.6238 0.0193087 1.76133 -2.20862 2.27498 -2.1201 1 -7.35951 0.00905528 4
349 1 17.8363 -0.0282343 3.55628 3.57346 -3.30696 -3.52224 1 -7.32786 0.0224769 4
69 1 1.78286 5.34857 0 0 0 0 1 -3.33963 0 2
70 1 0.891429 4.45714 0.891429 0 0 0 1 -7.01437 0 4
71 1 0.866076 6.24597 2.68235 0.789246 2.15516 -1.23188 1 -7.31023 0.00422325 4
72 1 2.65838 4.46936 2.67673 -3.68348 -9.45227 6.70734 1 -7.37272 0.092058 4
73 1 2.67429 6.24 0.891429 0 0 0 1 -7.03201 0 4
74 1 3.57834 5.32574 1.7997 -2.92009 -4.50805 -2.40595 1 -7.32744 0.0215596 4
75 1 0 7.13143 0 0 0 0 1 -3.34583 0 2
76 1 1.81 7.10557 1.77128 -0.401856 2.7676 -5.34864 1 -7.33997 0.0226744 4
77 1 0.891429 8.02286 0.891429 0 0 0 1 -6.99545 0 4
78 1 2.62872 8.02344 2.63957 -0.970982 -10.792 3.58411 1 -7.27316 0.081075 4
79 1 3.56572 7.13143 0 0 0 0 1 -3.33362 0 2
80 1 1.78625 5.35439 3.6504 -2.80143 0.0654028 -3.32962 1 -7.24636 0.0117879 4
81 1 3.57879 7.09105 3.55678 -0.942051 5.45382 0.74429 1 -7.23479 0.0194107 4
83 1 5.34857 5.34857 0 0 0 0 1 -3.34477 0 2
84 1 4.45714 4.45714 0.891429 0 0 0 1 -6.9894 0 4
85 1 4.49787 6.20698 2.6856 6.04488 -1.81579 -4.4261 1 -7.35359 0.0369896 4
86 1 6.23387 4.50059 2.67088 8.86976 10.3253 -2.15363 1 -7.34555 0.118212 4
87 1 6.24 6.24 0.891429 0 0 0 1 -7.02049 0 4
88 1 7.12727 5.38124 1.77706 3.76775 -0.615014 -1.29146 1 -7.36674 0.0101095 4
89 1 8.02286 4.45714 0.891429 0 0 0 1 -7.01261 0 4
90 1 8.0233 6.24289 2.64758 -5.47329 -4.41579 1.39471 1 -7.39805 0.0319935 4
91 1 5.36468 7.13545 1.77641 -4.99328 -2.2943 -0.750284 1 -7.35109 0.0191456 4
92 1 4.45714 8.02286 0.891429 0 0 0 1 -7.01849 0 4
93 1 6.24636 8.04929 2.68331 -6.98925 6.40789 1.91036 1 -7.32652 0.0582343 4
94 1 7.13143 7.13143 0 0 0 0 1 -3.34454 0 2
95 1 8.02286 8.02286 0.891429 0 0 0 1 -7.01764 0 4
96 1 5.35732 5.3218 3.5754 0.843198 9.98713 2.42773 1 -7.40348 0.0661935 4
97 1 7.13858 7.13406 3.50279 5.62112 0.277965 -0.629798 1 -7.28529 0.0199618 4
98 1 8.91429 5.34857 0 0 0 0 1 -3.33597 0 2
99 1 9.81833 4.47412 2.66666 -5.80368 6.48457 -2.06692 1 -7.38133 0.0497969 4
100 1 9.80572 6.24 0.891429 0 0 0 1 -7.02993 0 4
101 1 10.6907 5.39334 1.77908 -0.429137 2.52043 2.22902 1 -7.36033 0.00716117 4
102 1 12.48 5.34857 0 0 0 0 1 -3.31627 0 2
103 1 11.5886 4.45714 0.891429 0 0 0 1 -6.97683 0 4
104 1 11.6119 6.24736 2.63898 7.30021 0.196671 -7.77282 1 -7.33795 0.0708001 4
105 1 8.91204 7.14998 1.78492 -0.980005 3.65767 -2.82115 1 -7.36087 0.0138788 4
106 1 9.78067 8.06198 2.68748 6.67274 -0.959208 -1.82884 1 -7.2973 0.0303683 4
107 1 10.6971 7.13143 0 0 0 0 1 -3.3399 0 2
108 1 12.4683 7.15885 1.75844 7.623 -3.56943 6.61015 1 -7.36781 0.0712958 4
109 1 11.5886 8.02286 0.891429 0 0 0 1 -7.02403 0 4
110 1 8.90764 5.35044 3.51895 -3.6077 -3.22629 1.35231 1 -7.37238 0.0157182 4
111 1 12.4684 5.3196 3.58413 2.51525 6.53768 -2.80742 1 -7.36255 0.0354468 4
112 1 10.7264 7.12522 3.56934 -1.99972 -4.05889 5.1184 1 -7.25306 0.0290496 4
113 1 13.3774 4.46402 2.67477 5.9523 -8.51851 -2.68127 1 -7.37098 0.0716935 4
114 1 13.3714 6.24 0.891429 0 0 0 1 -6.99057 0 4
115 1 14.2567 5.33252 1.79878 -6.05364 -1.79756 7.61392 1 -7.39452 0.0609041 4
116 1 16.0457 5.34857 0 0 0 0 1 -3.34147 0 2
117 1 15.1543 4.45714 0.891429 0 0 0 1 -7.02138 0 4
118 1 15.1058 6.21742 2.65904 5.79289 1.75086 -2.84956 1 -7.24774 0.0278493 4
119 1 16.9022 4.48074 2.59832 3.83062 1.89414 -3.03299 1 -7.24489 0.0170921 4
120 1 16.9371 6.24 0.891429 0 0 0 1 -7.03839 0 4
121 1 13.3474 8.0055 2.68343 3.74631 1.29037 6.34286 1 -7.37609 0.0348134 4
122 1 14.2629 7.13143 0 0 0 0 1 -3.31397 0 2
123 1 16.0771 7.14851 1.75193 2.7212 -4.50528 -4.58589 1 -7.28853 0.0303326 4
124 1 15.1543 8.02286 0.891429 0 0 0 1 -6.9855 0 4
125 1 16.8686 8.04774 2.67664 -14.378 -0.489512 0.912122 1 -7.35136 0.129339 4
126 1 16.0502 5.34426 3.55354 -8.48556 -3.53739 -0.0861187 1 -7.28035 0.0526107 4
127 1 14.231 7.11418 3.56206 -0.0399411 0.82901 1.18733 1 -7.39138 0.00130622 4
128 1 21.3857 5.33713 1.80629 2.50697 -0.0896131 0.168942 1 -7.35023 0.00393464 4
82 1 21.3865 7.1401 3.57481 3.17417 -0.91874 6.92295 1 -7.30654 0.0366277 4
129 1 17.7937 5.34981 1.76497 1.91799 5.63897 7.50417 1 -7.35528 0.057132 4
130 1 19.6114 5.34857 0 0 0 0 1 -3.32743 0 2
131 1 18.72 4.45714 0.891429 0 0 0 1 -7.01399 0 4
132 1 18.6777 6.25256 2.69303 -5.08191 -3.26802 -2.02096 1 -7.37519 0.0252643 4
133 1 20.4798 4.47574 2.71074 -5.52117 -7.35982 -4.06824 1 -7.31319 0.06299 4
134 1 20.5029 6.24 0.891429 0 0 0 1 -6.98511 0 4
135 1 17.8286 7.13143 0 0 0 0 1 -3.31413 0 2
136 1 19.5607 7.11711 1.7808 -1.79438 -4.98645 5.44984 1 -7.32984 0.0359671 4
137 1 18.72 8.02286 0.891429 0 0 0 1 -7.03204 0 4
138 1 20.4973 8.01761 2.69171 -0.0258539 -6.34542 5.28652 1 -7.32268 0.0424571 4
139 1 19.5689 5.38004 3.60679 -5.56874 5.81014 -0.51864 1 -7.38659 0.0404811 4
140 1 17.7988 7.13092 3.56744 5.13469 -2.67394 0.268405 1 -7.3041 0.0209055 4
141 1 1.78286 8.91429 0 0 0 0 1 -3.3319 0 2
142 1 0.91429 9.81155 2.67394 -3.63243 3.85579 -3.91971 1 -7.31227 0.0270293 4
143 1 2.67429 9.80572 0.891429 0 0 0 1 -7.04203 0 4
144 1 3.54667 8.92217 1.76241 3.34891 -4.36435 3.02049 1 -7.35933 0.024515 4
145 1 0 10.6971 0 0 0 0 1 -3.33519 0 2
146 1 1.80201 10.7007 1.75902 3.07831 -6.01412 5.82858 1 -7.37784 0.0495563 4
147 1 1.78286 12.48 0 0 0 0 1 -3.32142 0 2
148 1 0.891429 11.5886 0.891429 0 0 0 1 -6.99829 0 4
149 1 2.67145 11.6272 2.67533 -4.13833 2.56879 -0.789951 1 -7.27656 0.0151551 4
150 1 3.56572 10.6971 0 0 0 0 1 -3.33051 0 2
151 1 3.59831 12.4996 1.81189 -1.32705 1.63021 -8.27317 1 -7.37609 0.0453525 4
152 1 1.75577 8.94485 3.57321 3.75349 1.77544 0.888724 1 -7.31862 0.0112228 4
153 1 1.78733 12.506 3.55049 0.0432472 -1.10022 -4.73924 1 -7.41559 0.0147345 4
154 1 3.55833 10.6939 3.60531 3.16416 3.36051 -3.28182 1 -7.30618 0.0199645 4
205 1 0.021523 8.88733 1.77539 7.79864 -5.71945 -1.6322 1 -7.35354 0.0598743 4
204 1 0.0274687 12.5029 1.75508 12.8013 -1.76385 -1.01066 1 -7.30829 0.104571 4
203 1 0.0143448 10.689 3.55902 -3.05997 1.80129 -6.24522 1 -7.36355 0.0321239 4
155 1 5.34857 8.91429 0 0 0 0 1 -3.3292 0 2
156 1 4.44735 9.78066 2.65535 8.05709 -0.108705 0.245391 1 -7.31588 0.0404507 4
157 1 6.24 9.80572 0.891429 0 0 0 1 -7.02773 0 4
158 1 7.17022 8.94927 1.78843 -2.94041 -5.18244 -1.27381 1 -7.31096 0.0231083 4
159 1 8.02634 9.85594 2.70459 -8.70631 -2.27071 2.29574 1 -7.39214 0.0536696 4
160 1 5.33995 10.6822 1.73229 -0.879518 -2.33869 3.19173 1 -7.32144 0.0102266 4
161 1 5.34857 12.48 0 0 0 0 1 -3.33152 0 2
162 1 4.45714 11.5886 0.891429 0 0 0 1 -7.02702 0 4
163 1 6.17205 11.5848 2.70241 11.1392 -5.42341 -3.31716 1 -7.32536 0.102389 4
164 1 7.13143 10.6971 0 0 0 0 1 -3.31728 0 2
165 1 7.10205 12.4749 1.79186 1.34247 -1.36592 -4.22759 1 -7.27435 0.0134073 4
166 1 8.02286 11.5886 0.891429 0 0 0 1 -7.03106 0 4
167 1 5.33923 8.90145 3.54323 5.38658 0.370514 -0.444243 1 -7.37287 0.0182681 4
168 1 5.35035 12.4933 3.56264 -0.674043 -3.44801 0.220802 1 -7.36827 0.007713 4
169 1 7.09412 10.6793 3.56036 3.29311 -0.388563 13.982 1 -7.30147 0.128526 4
170 1 8.91429 8.91429 0 0 0 0 1 -3.33097 0 2
171 1 9.80572 9.80572 0.891429 0 0 0 1 -6.96341 0 4
172 1 10.7101 8.97621 1.80037 -0.199215 -5.89656 0.851473 1 -7.29684 0.0221174 4
173 1 12.48 8.91429 0 0 0 0 1 -3.29399 0 2
174 1 11.5665 9.87629 2.69299 -6.63642 -1.94566 1.96993 1 -7.26441 0.0321846 4
175 1 8.86916 10.7388 1.78173 -4.07851 -1.94089 0.444696 1 -7.32901 0.0128214 4
176 1 8.91429 12.48 0 0 0 0 1 -3.3467 0 2
177 1 9.79053 11.5915 2.68849 -0.00665534 -4.97232 -6.49857 1 -7.37107 0.0416749 4
178 1 10.6971 10.6971 0 0 0 0 1 -3.32572 0 2
179 1 10.7111 12.4551 1.79905 -6.53891 5.70901 3.97101 1 -7.31057 0.0567149 4
180 1 12.4577 10.7268 1.76671 -5.79327 4.2693 6.22072 1 -7.29343 0.056321 4
181 1 12.48 12.48 0 0 0 0 1 -3.34395 0 2
182 1 11.5886 11.5886 0.891429 0 0 0 1 -7.03596 0 4
183 1 8.94902 8.95248 3.5526 5.30564 5.70735 4.98223 1 -7.3199 0.0532462 4
184 1 12.5025 8.89903 3.59807 2.77096 2.49499 -0.515535 1 -7.26796 0.00881913 4
185 1 8.91797 12.4667 3.6177 -0.369793 -1.50204 0.476601 1 -7.27943 0.00163077 4
186 1 10.6936 10.7763 3.5627 -2.63781 1.27561 1.68075 1 -7.30645 0.00710198 4
187 1 12.4675 12.5087 3.562 2.82222 1.17975 -5.19952 1 -7.36509 0.0226512 4
188 1 13.3714 9.80572 0.891429 0 0 0 1 -7.04759 0 4
189 1 14.2086 8.88105 1.76113 7.43981 -1.34533 10.9985 1 -7.31277 0.110871 4
190 1 16.0457 8.91429 0 0 0 0 1 -3.34612 0 2
191 1 15.1402 9.78993 2.69958 -3.66111 -0.70309 3.83736 1 -7.19258 0.0178159 4
192 1 16.9371 9.80572 0.891429 0 0 0 1 -6.99715 0 4
193 1 13.3181 11.6288 2.71641 -5.18245 -3.22604 4.31232 1 -7.34795 0.0347695 4
194 1 14.2629 10.6971 0 0 0 0 1 -3.35301 0 2
195 1 14.2282 12.5058 1.78907 1.53983 -2.702 3.36738 1 -7.31896 0.0130779 4
196 1 16.0869 10.7554 1.77152 -5.5796 0.720846 -2.89725 1 -7.26521 0.0249254 4
197 1 16.0457 12.48 0 0 0 0 1 -3.30222 0 2
198 1 15.1543 11.5886 0.891429 0 0 0 1 -6.99409 0 4
199 1 16.9551 11.6197 2.65198 6.88762 -6.6324 -7.32591 1 -7.37035 0.0903121 4
200 1 16.0111 8.90436 3.54359 -2.21729 -0.0130981 -0.525678 1 -7.39118 0.00323217 4
201 1 14.2138 10.6894 3.5675 -1.75786 4.19186 -5.23873 1 -7.32027 0.0299425 4
202 1 16.0425 12.4548 3.55502 0.522946 0.401191 -9.22563 1 -7.36412 0.0532465 4
206 1 17.8103 8.93209 1.77125 2.99433 3.57163 -4.34389 1 -7.34263 0.0252655 4
207 1 19.6114 8.91429 0 0 0 0 1 -3.33431 0 2
208 1 18.6803 9.79659 2.67814 -8.88977 -0.0134015 0.584888 1 -7.36531 0.0494021 4
209 1 20.5029 9.80572 0.891429 0 0 0 1 -6.96199 0 4
210 1 17.8286 10.6971 0 0 0 0 1 -3.31752 0 2
211 1 17.8604 12.4663 1.75525 13.1838 0.204488 -5.71468 1 -7.37514 0.128539 4
212 1 19.5831 10.7196 1.77764 2.57963 6.93088 -11.6886 1 -7.35539 0.11908 4
213 1 19.6114 12.48 0 0 0 0 1 -3.34187 0 2
214 1 18.72 11.5886 0.891429 0 0 0 1 -7.05053 0 4
215 1 20.502 11.5455 2.64014 3.34868 -2.3021 -4.53626 1 -7.28344 0.0230864 4
216 1 19.5979 8.91775 3.57599 0.0548539 -1.46677 -6.66703 1 -7.36816 0.0290074 4
217 1 17.8275 10.6957 3.55217 4.16263 0.128194 -2.13005 1 -7.33004 0.0136193 4
218 1 19.6369 12.5031 3.53557 4.32731 -11.1002 5.5987 1 -7.27165 0.107858 4
219 1 0.910985 13.3606 2.65503 1.35241 -0.193355 0.442357 1 -7.41084 0.0012835 4
220 1 2.67429 13.3714 0.891429 0 0 0 1 -6.99208 0 4
221 1 0 14.2629 0 0 0 0 1 -3.32097 0 2
222 1 1.78312 14.256 1.76239 4.47322 -4.05146 -1.2974 1 -7.35962 0.0237189 4
223 1 1.78286 16.0457 0 0 0 0 1 -3.32532 0 2
224 1 0.891429 15.1543 0.891429 0 0 0 1 -7.01368 0 4
225 1 0.890204 16.9093 2.67302 -0.629252 -2.8884 4.07614 1 -7.30477 0.0157808 4
226 1 2.6596 15.1895 2.62869 -0.888869 7.32509 0.887085 1 -7.27496 0.034379 4
227 1 2.67429 16.9371 0.891429 0 0 0 1 -6.9554 0 4
228 1 3.56572 14.2629 0 0 0 0 1 -3.34257 0 2
229 1 3.60327 16.0402 1.76781 3.04254 -5.48524 -2.36219 1 -7.32018 0.0279624 4
230 1 1.76556 16.0442 3.55833 -5.40825 -0.201367 -9.25289 1 -7.34777 0.0715202 4
231 1 3.56703 14.2591 3.58232 -2.05463 5.23774 -10.1138 1 -7.32775 0.083371 4
233 1 0.00165081 16.0259 1.74474 5.61077 3.34795 0.886365 1 -7.36918 0.0270601 4
232 1 0.0142308 14.247 3.5442 -0.149706 -4.19418 8.71988 1 -7.34438 0.0582901 4
234 1 4.42859 13.3675 2.69655 -4.34142 5.39775 -0.346051 1 -7.37562 0.0299408 4
235 1 6.24 13.3714 0.891429 0 0 0 1 -6.99112 0 4
236 1 8.02892 13.3689 2.70013 1.45601 7.54058 -1.96946 1 -7.31971 0.0391251 4
237 1 5.3614 14.2835 1.81055 2.20723 -0.474381 -5.96084 1 -7.26133 0.0252883 4
238 1 5.34857 16.0457 0 0 0 0 1 -3.33551 0 2
239 1 4.45714 15.1543 0.891429 0 0 0 1 -7.0408 0 4
240 1 4.42402 16.9873 2.66256 3.04813 4.26521 -2.88992 1 -7.30512 0.0223045 4
241 1 6.29818 15.1691 2.69458 0.947449 -2.95593 0.9518 1 -7.33199 0.00656105 4
242 1 6.24 16.9371 0.891429 0 0 0 1 -7.04205 0 4
243 1 7.13143 14.2629 0 0 0 0 1 -3.35595 0 2
244 1 7.16505 16.0617 1.78069 -3.33229 1.47376 -4.0419 1 -7.40682 0.018432 4
245 1 8.02286 15.1543 0.891429 0 0 0 1 -7.02731 0 4
246 1 8.00791 16.9426 2.67008 -4.39924 8.1378 4.826 1 -7.33605 0.0677619 4
247 1 5.33529 16.0171 3.58094 3.20149 4.43013 -3.71492 1 -7.22409 0.0271853 4
248 1 7.11179 14.2379 3.58449 -0.528843 -4.23177 -2.26492 1 -7.34845 0.0145134 4
249 1 9.80572 13.3714 0.891429 0 0 0 1 -6.94613 0 4
250 1 11.5767 13.4019 2.70522 0.496867 0.96701 -6.57036 1 -7.33171 0.0276056 4
251 1 8.90306 14.2837 1.8134 0.148518 -3.94885 -2.25648 1 -7.35157 0.0128887 4
252 1 8.91429 16.0457 0 0 0 0 1 -3.33093 0 2
253 1 9.82714 15.1731 2.69493 -1.39922 1.77318 1.49451 1 -7.38351 0.00456584 4
254 1 9.80572 16.9371 0.891429 0 0 0 1 -7.04271 0 4
255 1 10.6971 14.2629 0 0 0 0 1 -3.34291 0 2
256 1 10.6919 16.06 1.78142 -9.40072 -0.691429 -2.14305 1 -7.3211 0.0581622 4
257 1 12.4695 14.3012 1.77241 -0.125521 1.38086 5.47583 1 -7.30186 0.0198599 4
258 1 12.48 16.0457 0 0 0 0 1 -3.32208 0 2
259 1 11.5886 15.1543 0.891429 0 0 0 1 -7.02776 0 4
260 1 11.5967 16.9431 2.70231 -1.04944 -8.86909 4.65459 1 -7.3368 0.063131 4
261 1 8.92918 16.0435 3.58233 -4.30015 0.950689 -6.08862 1 -7.21778 0.0351462 4
262 1 10.6919 14.3117 3.55218 2.1688 0.767004 -9.22595 1 -7.33751 0.0562736 4
263 1 12.4469 16.0602 3.55371 1.28982 5.80095 3.28599 1 -7.35981 0.0287016 4
264 1 13.3714 13.3714 0.891429 0 0 0 1 -7.01879 0 4
265 1 15.1213 13.3567 2.65304 -8.98 12.9012 -0.0296685 1 -7.32154 0.15379 4
266 1 16.9371 13.3714 0.891429 0 0 0 1 -7.01154 0 4
267 1 13.3523 15.1687 2.67398 -3.77615 -4.11839 2.24953 1 -7.34098 0.0225821 4
268 1 13.3714 16.9371 0.891429 0 0 0 1 -7.03712 0 4
269 1 14.2629 14.2629 0 0 0 0 1 -3.3164 0 2
270 1 14.2694 16.0294 1.744 -6.58993 -0.471916 4.91282 1 -7.36623 0.0421916 4
271 1 16.0325 14.2425 1.76226 2.61301 -1.57731 -5.60552 1 -7.39264 0.0253561 4
272 1 16.0457 16.0457 0 0 0 0 1 -3.34265 0 2
273 1 15.1543 15.1543 0.891429 0 0 0 1 -7.02363 0 4
274 1 15.187 16.9226 2.61318 0.922303 -5.60158 -0.619876 1 -7.33605 0.0202989 4
275 1 16.9291 15.1295 2.66269 1.03846 9.73673 2.34267 1 -7.34224 0.0630956 4
276 1 16.9371 16.9371 0.891429 0 0 0 1 -7.02973 0 4
277 1 14.2146 14.248 3.56663 5.91139 0.651396 -6.19328 1 -7.30492 0.0458887 4
278 1 16.0411 16.0648 3.54483 2.31077 -1.63323 -5.5025 1 -7.31982 0.0238293 4
279 1 18.7438 13.3517 2.64735 2.88077 -4.1657 -1.76061 1 -7.32636 0.0178958 4
280 1 20.5029 13.3714 0.891429 0 0 0 1 -7.02327 0 4
281 1 17.8286 14.2629 0 0 0 0 1 -3.31506 0 2
282 1 17.7939 16.059 1.77846 6.4824 6.64754 3.22445 1 -7.31908 0.0601316 4
283 1 19.6377 14.212 1.80389 -7.50522 1.53761 -1.55418 1 -7.31678 0.0380352 4
284 1 19.6114 16.0457 0 0 0 0 1 -3.32092 0 2
285 1 18.72 15.1543 0.891429 0 0 0 1 -6.93319 0 4
286 1 18.7216 16.93 2.66719 -1.71871 6.49588 6.55927 1 -7.31561 0.0548821 4
287 1 20.5201 15.1197 2.66836 1.52726 6.88861 5.87097 1 -7.38165 0.0524418 4
288 1 20.5029 16.9371 0.891429 0 0 0 1 -7.03871 0 4
289 1 17.805 14.2593 3.55894 -1.86119 8.74697 -2.38906 1 -7.3847 0.0533302 4
290 1 19.628 15.9692 3.55053 -0.97363 -1.99749 0.778966 1 -7.37077 0.00345118 4
291 1 3.56442 21.3959 3.53999 6.77183 1.44881 1.69127 1 -7.3352 0.0316299 4
293 1 0 17.8286 0 0 0 0 1 -3.33834 0 2
294 1 1.75191 17.8243 1.77787 -1.0328 5.16645 -4.70753 1 -7.33847 0.0310713 4
295 1 1.78286 19.6114 0 0 0 0 1 -3.33843 0 2
296 1 0.891429 18.72 0.891429 0 0 0 1 -7.01747 0 4
297 1 0.898328 20.481 2.62857 2.14057 -3.24106 -2.89984 1 -7.33414 0.0146243 4
298 1 2.64635 18.7361 2.67133 4.61522 -3.42952 -1.30438 1 -7.32399 0.0216376 4
299 1 2.67429 20.5029 0.891429 0 0 0 1 -7.01875 0 4
300 1 3.56572 17.8286 0 0 0 0 1 -3.31587 0 2
301 1 3.51312 19.6198 1.76958 0.232294 7.76294 9.44302 1 -7.35401 0.0930451 4
302 1 1.7585 19.5934 3.56374 0.603849 5.14485 10.2657 1 -7.37968 0.0822964 4
303 1 3.53103 17.8289 3.50937 2.7155 2.41342 -0.0142196 1 -7.4142 0.00821522 4
306 1 7.12013 21.3572 3.52218 -2.59749 -5.21945 -2.32074 1 -7.3335 0.0245083 4
27 1 5.31562 21.3932 1.77091 5.50458 5.02994 -0.956697 1 -7.33681 0.035177 4
307 1 5.362 17.8448 1.75014 4.90011 -1.20678 -2.52193 1 -7.37179 0.0198103 4
308 1 5.34857 19.6114 0 0 0 0 1 -3.32045 0 2
309 1 4.45714 18.72 0.891429 0 0 0 1 -6.9962 0 4
310 1 4.42533 20.4719 2.68159 -5.67939 5.00341 -1.26971 1 -7.31547 0.036662 4
311 1 6.23714 18.693 2.6851 5.28621 0.447266 0.0157534 1 -7.36151 0.0175177 4
312 1 6.24 20.5029 0.891429 0 0 0 1 -6.99703 0 4
313 1 7.13143 17.8286 0 0 0 0 1 -3.31372 0 2
314 1 7.1289 19.6168 1.79799 -1.02282 -1.23297 -0.131242 1 -7.32907 0.00160809 4
315 1 8.02286 18.72 0.891429 0 0 0 1 -6.99806 0 4
316 1 8.02023 20.493 2.67083 7.17192 6.36953 1.13633 1 -7.34855 0.0580714 4
317 1 5.33721 19.5587 3.55264 -1.49196 -6.28783 6.56738 1 -7.30868 0.0528397 4
318 1 7.17946 17.8292 3.58632 -4.6181 -1.6002 0.946362 1 -7.32206 0.0154256 4
319 1 10.7007 21.4048 3.52017 -5.24684 2.14082 -1.50691 1 -7.38222 0.021401 4
320 1 8.97143 21.3553 1.78773 -10.2136 4.2129 -5.08655 1 -7.27552 0.0920809 4
321 1 12.4971 21.3967 1.80389 6.81692 6.17303 -0.524964 1 -7.29987 0.0528143 4
322 1 8.91303 17.8206 1.78173 -9.21787 -2.19103 -3.9482 1 -7.31902 0.0655776 4
323 1 8.91429 19.6114 0 0 0 0 1 -3.34152 0 2
324 1 9.80354 18.708 2.68489 -3.10678 1.67953 0.210371 1 -7.36272 0.00779103 4
325 1 9.80572 20.5029 0.891429 0 0 0 1 -7.04276 0 4
326 1 10.6971 17.8286 0 0 0 0 1 -3.32595 0 2
327 1 10.6672 19.622 1.75762 -1.35799 -0.101198 -3.15566 1 -7.36518 0.00735245 4
328 1 12.496 17.8215 1.77561 -2.54215 4.19784 -6.13694 1 -7.37645 0.0384325 4
329 1 12.48 19.6114 0 0 0 0 1 -3.33892 0 2
330 1 11.5886 18.72 0.891429 0 0 0 1 -7.00265 0 4
331 1 11.5498 20.496 2.6716 -5.55298 7.03716 1.47296 1 -7.32077 0.0513668 4
332 1 8.94391 19.5652 3.54746 -0.651839 3.17373 0.0937358 1 -7.30794 0.00653934 4
333 1 10.6466 17.782 3.53011 -2.30396 -1.15314 5.03495 1 -7.36518 0.0199106 4
334 1 12.4413 19.635 3.54289 3.67713 5.43585 -8.95434 1 -7.33746 0.076714 4
335 1 16.0508 21.3831 1.76161 0.0290455 0.103287 2.72137 1 -7.37157 0.00461675 4
337 1 13.3542 18.7339 2.66881 -2.10742 -0.156359 1.89745 1 -7.32703 0.00502047 4
338 1 13.3714 20.5029 0.891429 0 0 0 1 -7.00369 0 4
339 1 14.2629 17.8286 0 0 0 0 1 -3.33593 0 2
340 1 14.2768 19.6286 1.76578 -3.73433 -2.25892 -3.88411 1 -7.3412 0.021246 4
341 1 16.0888 17.8329 1.76297 -4.58991 -1.99561 0.829426 1 -7.3664 0.0160198 4
342 1 16.0457 19.6114 0 0 0 0 1 -3.30904 0 2
343 1 15.1543 18.72 0.891429 0 0 0 1 -7.00332 0 4
344 1 15.1813 20.5311 2.62708 0.475134 -0.651287 2.48789 1 -7.38011 0.0042571 4
345 1 16.9572 18.7287 2.6446 1.77966 2.19178 -0.972372 1 -7.40516 0.00554993 4
346 1 16.9371 20.5029 0.891429 0 0 0 1 -7.03753 0 4
347 1 14.2529 17.8287 3.53473 -5.02764 3.30494 -2.58133 1 -7.25876 0.0266791 4
348 1 16.0563 19.6225 3.54165 2.71924 -1.56474 1.31139 1 -7.31333 0.00719675 4
305 1 21.4094 19.6017 1.77308 7.66515 -2.01157 -6.45656 1 -7.38271 0.0650361 4
304 1 21.4094 17.7916 3.59351 2.64415 4.3692 0.0490468 1 -7.32126 0.0162353 4
351 1 17.8286 17.8286 0 0 0 0 1 -3.31994 0 2
352 1 17.842 19.6099 1.76523 0.890551 -5.96026 -0.860625 1 -7.36122 0.0230661 4
353 1 19.6105 17.7805 1.77954 -1.40185 5.43227 2.60775 1 -7.32708 0.0238234 4
354 1 19.6114 19.6114 0 0 0 0 1 -3.33729 0 2
355 1 18.72 18.72 0.891429 0 0 0 1 -7.00005 0 4
356 1 18.7335 20.4851 2.65342 7.48025 -0.159614 4.51579 1 -7.35585 0.0475359 4
357 1 20.5281 18.6952 2.66471 1.45649 -6.78961 5.61576 1 -7.29734 0.0496428 4
358 1 20.5029 20.5029 0.891429 0 0 0 1 -7.01334 0 4
359 1 17.8307 17.8765 3.4964 0.616008 5.23073 -1.8237 1 -7.31716 0.0193362 4
360 1 19.5812 19.5802 3.55045 1.64099 -8.2347 3.78227 1 -7.31773 0.0527871 4
361 1 0.86999 0.855403 4.47481 4.68929 -4.35449 -0.243879 1 -7.30477 0.025526 4
362 1 0.878432 2.66012 6.23509 7.06838 7.19415 -4.8378 1 -7.3468 0.0778792 4
363 1 2.66909 0.862572 6.2426 2.25829 7.04305 2.91181 1 -7.25711 0.0393268 4
364 1 2.6859 2.63104 4.47388 -5.26623 9.63735 -0.687508 1 -7.3372 0.0753661 4
365 1 3.5892 1.78467 5.33749 1.49667 -2.09555 -6.54849 1 -7.38138 0.0308188 4
366 1 1.77631 3.53348 5.32115 3.12285 -8.03417 -2.94577 1 -7.33472 0.0516475 4
367 1 1.7629 1.78419 7.13412 2.05739 8.36849 -4.97315 1 -7.36572 0.0616181 4
368 1 0.905472 0.893617 8.03303 6.40905 2.07431 1.58283 1 -7.30861 0.0298043 4
369 1 2.63154 2.63377 8.02449 3.66386 2.27663 8.23127 1 -7.32904 0.0537532 4
370 1 3.55803 3.57347 7.09989 6.56604 -3.83668 1.41272 1 -7.36854 0.037239 4
371 1 -0.0253852 3.58097 7.13852 -6.32666 -0.605884 2.67023 1 -7.30103 0.0295801 4
652 1 1.76028 -0.0744705 5.31643 4.65061 -2.39453 10.8035 1 -7.27691 0.0896777 4
372 1 4.46852 0.886658 4.44018 1.08582 5.07977 -4.89183 1 -7.31695 0.0316896 4
373 1 4.44567 2.69433 6.19983 -0.605911 2.38904 2.68743 1 -7.39246 0.00827634 4
374 1 6.25832 0.873683 6.18726 14.2006 -0.746269 0.252653 1 -7.33316 0.125904 4
375 1 6.2469 2.63873 4.43984 -4.81082 7.29661 3.44421 1 -7.33204 0.0549273 4
376 1 7.14873 1.74012 5.28793 3.31279 -2.77904 -0.772891 1 -7.36854 0.0120097 4
377 1 7.94644 0.845012 4.42482 3.6117 -4.23801 0.809205 1 -7.28308 0.019706 4
378 1 8.00552 2.64686 6.17221 2.33468 -2.01079 1.90245 1 -7.31058 0.00816206 4
379 1 5.35886 3.47802 5.29757 3.26858 -1.38644 7.20745 1 -7.36168 0.0401796 4
380 1 5.33382 1.80324 7.08626 -2.16429 -0.985964 3.71192 1 -7.24395 0.0120966 4
381 1 4.43131 0.882362 8.05181 4.64885 -2.20094 2.5672 1 -7.28638 0.020569 4
382 1 6.25316 2.68299 8.0339 4.94467 5.20758 1.59664 1 -7.29597 0.0336844 4
383 1 8.00672 0.886872 7.98704 -1.60642 -4.11065 0.441648 1 -7.34787 0.012245 4
384 1 7.15242 3.55919 7.13866 -2.19735 -4.11204 -1.30297 1 -7.30974 0.0145865 4
665 1 7.1291 0.0107702 7.12098 -2.28279 -5.85749 -4.18325 1 -7.30436 0.0354913 4
386 1 9.762 0.8922 6.21427 -1.35926 -0.574041 6.32236 1 -7.34812 0.0262348 4
387 1 9.77345 2.65056 4.41602 -4.0349 -1.5029 4.59285 1 -7.32443 0.0246688 4
388 1 10.6856 1.8052 5.31308 -3.31425 -5.9385 -5.25555 1 -7.30331 0.0459792 4
389 1 11.5749 0.900119 4.43899 2.50969 2.48271 3.71512 1 -7.32249 0.0163477 4
390 1 11.5985 2.72412 6.21745 -0.761423 -6.42481 -3.99568 1 -7.27271 0.0359908 4
391 1 8.87709 3.56304 5.3016 -3.02001 -1.31982 -1.58043 1 -7.3317 0.00831571 4
392 1 12.5044 3.57724 5.29932 -0.294809 -4.92399 -1.45786 1 -7.3086 0.0164681 4
393 1 8.89715 1.7612 7.10299 2.70457 -3.1297 6.86078 1 -7.37684 0.0399473 4
394 1 9.77209 2.63795 8.01687 -3.4446 -1.31353 4.29915 1 -7.34419 0.0199633 4
395 1 12.4347 1.76293 7.09371 -0.761606 -8.61117 -0.765294 1 -7.30386 0.0468798 4
396 1 11.5246 0.893122 7.98846 -0.410903 5.25918 -2.39942 1 -7.34823 0.0209042 4
397 1 10.6876 3.56793 7.1563 1.15642 -1.72926 -5.75268 1 -7.38729 0.0232918 4
679 1 8.87609 -0.0156672 5.32878 -6.04933 -2.67237 -3.57634 1 -7.36519 0.0351834 4
680 1 12.4835 0.0152538 5.34167 3.70596 1.27936 1.44853 1 -7.34873 0.0108732 4
681 1 10.6437 0.0250275 7.07204 -0.798534 -6.48074 -5.89648 1 -7.3422 0.0481796 4
398 1 13.3303 0.902733 6.22995 2.45359 -2.89918 -7.94922 1 -7.321 0.0483099 4
399 1 13.3782 2.6183 4.4364 -6.42953 0.964555 0.272479 1 -7.32826 0.0263557 4
400 1 14.2697 1.79721 5.30914 10.0581 -5.52917 1.90258 1 -7.37983 0.0842497 4
401 1 15.1354 0.892675 4.41141 -9.69011 -5.62515 0.625879 1 -7.31312 0.0783835 4
402 1 15.1542 2.65134 6.19009 -1.32647 0.447999 1.17825 1 -7.39376 0.0020842 4
403 1 16.9157 0.923088 6.23983 1.4869 -1.10219 -4.25438 1 -7.33167 0.013398 4
404 1 16.9609 2.6726 4.43419 0.318718 4.27466 1.75266 1 -7.37348 0.0133486 4
405 1 16.0422 3.54611 5.34591 3.12001 -5.80227 4.97795 1 -7.34828 0.0424375 4
406 1 13.3642 2.67256 8.01042 -1.38731 -6.37284 2.27079 1 -7.27074 0.0296861 4
407 1 16.0174 1.80387 7.11141 6.28771 1.5487 -1.30215 1 -7.37903 0.027156 4
408 1 15.136 0.874068 8.00939 0.419005 4.41962 0.577083 1 -7.36786 0.0124745 4
409 1 16.9241 2.66059 8.00524 0.138532 -1.04915 0.459137 1 -7.36737 0.00082827 4
410 1 14.2246 3.55751 7.10927 -5.02371 2.32606 -8.33474 1 -7.32688 0.0623149 4
411 1 21.3874 1.75279 5.37185 5.61443 5.35801 -0.302798 1 -7.33365 0.0375459 4
412 1 17.8195 1.779 5.35001 1.31645 -9.53607 1.82933 1 -7.34054 0.0597629 4
413 1 18.7497 0.869189 4.48766 -3.25011 0.666116 1.82603 1 -7.32387 0.00892641 4
414 1 18.7437 2.64726 6.23633 -1.559 3.37572 2.89582 1 -7.3235 0.0138252 4
415 1 20.5404 0.881073 6.27695 -4.39109 -6.05173 6.68898 1 -7.32046 0.0626457 4
416 1 20.4762 2.68247 4.42555 -5.92766 -6.48946 9.93443 1 -7.23398 0.109512 4
417 1 19.5795 3.58837 5.38331 3.77514 -1.63603 -3.65973 1 -7.28276 0.0188731 4
418 1 19.6135 1.80649 7.1637 -2.84157 -1.1373 7.00588 1 -7.29199 0.036381 4
419 1 18.6868 0.874346 7.9994 -4.15331 6.29435 -1.10277 1 -7.35664 0.0361535 4
420 1 20.5381 2.67814 8.02381 -6.35956 -6.82627 1.17317 1 -7.37469 0.0550338 4
421 1 17.8228 3.57272 7.13673 8.16061 -6.10697 1.61205 1 -7.2617 0.0662817 4
423 1 0.917882 4.41283 4.47747 8.68292 3.83551 -0.108115 1 -7.39815 0.0560905 4
424 1 0.852653 6.24468 6.24496 1.53035 -3.40743 10.0641 1 -7.32271 0.0717279 4
425 1 2.67154 4.47149 6.22278 -2.13952 -3.50015 -5.41626 1 -7.34684 0.028734 4
426 1 2.65419 6.2585 4.51566 4.9936 6.70861 -0.652752 1 -7.37175 0.0437986 4
427 1 3.55351 5.34251 5.31851 -1.50232 -2.61078 0.724088 1 -7.28399 0.00597368 4
428 1 1.77284 7.11913 5.38589 3.69939 2.61692 0.828624 1 -7.4088 0.0132081 4
429 1 0.888405 8.0697 4.52784 12.3606 -1.74028 2.40834 1 -7.29336 0.100592 4
430 1 2.61828 7.98154 6.24623 5.97466 8.74439 -3.24277 1 -7.3671 0.076357 4
431 1 1.75059 5.31567 7.07073 0.890814 -0.602144 -0.0516116 1 -7.32411 0.000721261 4
432 1 0.927839 4.45856 8.00998 1.61022 -4.97185 2.97403 1 -7.29283 0.0225051 4
433 1 2.65219 6.25753 7.99429 5.83683 4.03686 -1.66747 1 -7.28132 0.033079 4