ITEM: TIMESTEP
49126275
ITEM: NUMBER OF ATOMS
3060
ITEM: BOX BOUNDS pp pp mm
0.0000000000000000e+00 2.1394294200000001e+01
0.0000000000000000e+00 2.1394294200000001e+01
-5.3491084073550004e-03 5.3485735499999997e+01
ITEM: ATOMS id type x y z vx vy vz c_clusts c_atom_pe c_atom_ke c_atom_coord
1 1 0 0 0 0 0 0 1 -3.32588 0 2
2 1 1.78286 1.78286 0 0 0 0 1 -3.30622 0 2
3 1 0.891429 0.891429 0.891429 0 0 0 1 -7.01068 0 4
4 1 0.87283 2.64223 2.68505 -3.15524 3.18733 -1.48769 1 -7.31137 0.0138974 4
5 1 2.66037 0.873627 2.63755 3.98613 -2.19562 0.0526108 1 -7.34667 0.0128922 4
6 1 2.67429 2.67429 0.891429 0 0 0 1 -7.0397 0 4
7 1 3.56572 0 0 0 0 0 1 -3.33015 0 2
8 1 3.53918 1.79976 1.74592 -4.37226 -9.59433 -1.29973 1 -7.34421 0.0702453 4
9 1 0 3.56572 0 0 0 0 1 -3.30591 0 2
10 1 1.75528 3.55806 1.74952 -2.4936 -2.2168 7.26301 1 -7.31119 0.0397628 4
11 1 3.56572 3.56572 0 0 0 0 1 -3.34132 0 2
12 1 1.78751 1.77258 3.54897 8.09959 6.85095 -0.628176 1 -7.33602 0.0702928 4
13 1 3.5081 3.55095 3.5405 -0.245864 -3.79773 3.29281 1 -7.31036 0.0157635 4
292 1 1.79587 0.00968006 1.77892 5.33631 -0.933388 -3.27153 1 -7.37138 0.0249284 4
56 1 -0.010153 3.58614 3.55945 -6.06848 -1.00425 4.0146 1 -7.39472 0.0335811 4
55 1 -0.017395 1.81421 1.7651 -4.53349 0.642709 3.22272 1 -7.33569 0.019514 4
291 1 3.51511 0.00388521 3.57704 -2.79488 1.3028 -3.10541 1 -7.27068 0.0119208 4
14 1 5.34857 1.78286 0 0 0 0 1 -3.34534 0 2
15 1 4.45714 0.891429 0.891429 0 0 0 1 -7.0071 0 4
16 1 4.42614 2.70895 2.692 -4.16461 -10.2759 0.94821 1 -7.33548 0.0770797 4
17 1 6.25824 0.934952 2.65964 3.83212 -1.68857 3.72314 1 -7.23971 0.0195431 4
18 1 6.24 2.67429 0.891429 0 0 0 1 -6.97926 0 4
19 1 7.13143 0 0 0 0 0 1 -3.35222 0 2
20 1 7.15501 1.7666 1.74996 -4.38882 -1.50078 2.95033 1 -7.37248 0.0188088 4
21 1 8.02286 0.891429 0.891429 0 0 0 1 -7.01624 0 4
22 1 8.03388 2.68808 2.67726 5.20459 -8.6927 -2.79388 1 -7.33007 0.0687511 4
23 1 5.34761 3.59486 1.82936 -0.390208 1.46806 -1.93932 1 -7.28574 0.00377715 4
24 1 7.13143 3.56572 0 0 0 0 1 -3.32448 0 2
25 1 5.34017 1.83273 3.61698 -4.08136 -4.10976 0.284386 1 -7.25214 0.0209313 4
26 1 7.09708 3.57717 3.57411 5.20388 1.41971 -4.30354 1 -7.35381 0.0296377 4
306 1 7.08815 0.0383465 3.61232 5.96046 4.27929 -0.0844855 1 -7.3095 0.0335155 4
28 1 8.91429 1.78286 0 0 0 0 1 -3.31943 0 2
29 1 9.80214 0.8947 2.69616 -10.3041 2.37138 5.22071 1 -7.34842 0.086551 4
30 1 9.80572 2.67429 0.891429 0 0 0 1 -7.02206 0 4
31 1 10.6971 0 0 0 0 0 1 -3.33614 0 2
32 1 10.6958 1.80421 1.74721 -3.97028 0.1144 2.70762 1 -7.34255 0.0143826 4
33 1 12.48 1.78286 0 0 0 0 1 -3.34118 0 2
34 1 11.5886 0.891429 0.891429 0 0 0 1 -7.01514 0 4
35 1 11.5602 2.67511 2.6577 1.9265 0.733843 -6.76666 1 -7.30144 0.0311447 4
36 1 8.90522 3.56369 1.80746 -2.28107 5.09931 -4.97762 1 -7.37021 0.0348453 4
37 1 10.6971 3.56572 0 0 0 0 1 -3.33643 0 2
38 1 12.4895 3.56039 1.77609 -1.39587 -4.64007 -8.11635 1 -7.31709 0.0556162 4
39 1 8.88937 1.76948 3.58448 6.43369 7.21766 -2.95172 1 -7.39729 0.0636117 4
40 1 12.4818 1.79175 3.59005 -2.38977 9.67041 2.09562 1 -7.29963 0.0644954 4
41 1 10.6982 3.60314 3.57981 -2.59998 -1.20803 0.577855 1 -7.34931 0.0053237 4
319 1 10.6836 0.00716904 3.57334 -4.40781 -8.41437 -1.04524 1 -7.36044 0.0568418 4
320 1 8.96181 0.0127403 1.78347 0.845352 -4.43451 -4.68245 1 -7.33467 0.0263316 4
321 1 12.4795 0.0231499 1.82689 -0.656034 2.23903 2.43697 1 -7.37902 0.00708474 4
42 1 13.3869 0.913149 2.70591 4.69266 -2.16888 -4.74767 1 -7.36889 0.0306641 4
43 1 13.3714 2.67429 0.891429 0 0 0 1 -6.99223 0 4
44 1 14.2629 0 0 0 0 0 1 -3.33543 0 2
45 1 14.2897 1.8038 1.8339 -4.42062 3.2208 -2.43549 1 -7.31134 0.0223122 4
46 1 16.0457 1.78286 0 0 0 0 1 -3.32539 0 2
47 1 15.1543 0.891429 0.891429 0 0 0 1 -6.99613 0 4
48 1 15.1169 2.6832 2.66976 -6.09574 -1.75698 1.2138 1 -7.35158 0.0259666 4
49 1 16.8979 0.894902 2.65033 -0.0685578 5.69357 -0.0994439 1 -7.31573 0.0201861 4
50 1 16.9371 2.67429 0.891429 0 0 0 1 -7.03757 0 4
51 1 14.2629 3.56572 0 0 0 0 1 -3.32526 0 2
52 1 16.0342 3.56459 1.76982 -6.86268 5.46776 -1.92617 1 -7.38779 0.0502317 4
53 1 16.0079 1.78235 3.58948 -6.03437 1.58445 1.87711 1 -7.31905 0.0264205 4
54 1 14.2384 3.52278 3.59479 -0.237195 3.92281 -0.261611 1 -7.34791 0.00965577 4
336 1 14.2884 0.0270252 3.57763 -6.7965 -4.50898 3.39682 1 -7.32235 0.0485876 4
57 1 17.8286 0 0 0 0 0 1 -3.32128 0 2
58 1 17.784 1.80454 1.78481 7.38449 4.07915 -0.563651 1 -7.35494 0.0444959 4
59 1 19.6114 1.78286 0 0 0 0 1 -3.32372 0 2
60 1 18.72 0.891429 0.891429 0 0 0 1 -6.99547 0 4
61 1 18.6791 2.65266 2.65501 3.45206 4.60531 -0.913572 1 -7.3834 0.0211377 4
62 1 20.4908 0.905458 2.66798 0.535387 5.70904 -0.87848 1 -7.31538 0.0209456 4
63 1 20.5029 2.67429 0.891429 0 0 0 1 -7.04331 0 4
64 1 17.8286 3.56572 0 0 0 0 1 -3.32 0 2
65 1 19.5925 3.55391 1.7815 -3.332 0.172576 -6.27967 1 -7.35493 0.0314737 4
66 1 19.572 1.77366 3.55344 6.13131 1.11184 2.81779 1 -7.31409 0.0291103 4
67 1 17.8098 3.56418 3.52572 8.17246 -2.19239 7.77768 1 -7.27452 0.082215 4
68 1 19.6238 0.0193087 1.76133 -2.20862 2.27498 -2.1201 1 -7.35568 0.00905528 4
69 1 1.78286 5.34857 0 0 0 0 1 -3.32244 0 2
70 1 0.891429 4.45714 0.891429 0 0 0 1 -6.99508 0 4
71 1 0.912003 6.2021 2.63131 -7.49937 3.51705 -7.6305 1 -7.30206 0.0789452 4
72 1 2.61988 4.48557 2.66316 -0.47341 -6.20238 -3.90122 1 -7.29181 0.033557 4
73 1 2.67429 6.24 0.891429 0 0 0 1 -6.99458 0 4
74 1 3.55625 5.31769 1.78712 0.737929 -11.119 1.8938 1 -7.34966 0.0795226 4
75 1 0 7.13143 0 0 0 0 1 -3.33657 0 2
76 1 1.767 7.09079 1.73338 6.37894 -1.02747 2.02763 1 -7.31847 0.0285432 4
77 1 0.891429 8.02286 0.891429 0 0 0 1 -7.0202 0 4
78 1 2.66946 8.06236 2.62583 -7.79489 -0.0547517 -2.92117 1 -7.26864 0.0431319 4
79 1 3.56572 7.13143 0 0 0 0 1 -3.34216 0 2
80 1 1.77702 5.38066 3.5494 4.71426 0.818683 0.351937 1 -7.393 0.0143272 4
81 1 3.60217 7.15141 3.53208 3.20263 -2.03198 0.0907354 1 -7.26139 0.00895923 4
128 1 -0.0532058 5.32021 1.74781 0.626347 -1.95894 -5.56773 1 -7.33849 0.0219277 4
82 1 0.0293459 7.12507 3.55147 -2.03621 -2.9625 -4.71994 1 -7.2794 0.0219097 4
83 1 5.34857 5.34857 0 0 0 0 1 -3.35391 0 2
84 1 4.45714 4.45714 0.891429 0 0 0 1 -6.99746 0 4
85 1 4.46238 6.2045 2.68493 -4.06444 6.37415 -3.14836 1 -7.30535 0.0417409 4
86 1 6.24412 4.5137 2.72342 -0.246601 4.07033 -7.42136 1 -7.33054 0.0446311 4
87 1 6.24 6.24 0.891429 0 0 0 1 -7.03613 0 4
88 1 7.11364 5.39082 1.75831 2.92592 -0.388415 -4.06856 1 -7.32682 0.0157256 4
89 1 8.02286 4.45714 0.891429 0 0 0 1 -6.99645 0 4
90 1 8.02365 6.22654 2.65099 2.62222 -7.35427 -2.43593 1 -7.29206 0.0416373 4
91 1 5.36468 7.13545 1.77641 -4.99328 -2.2943 -0.750284 1 -7.35295 0.0191456 4
92 1 4.45714 8.02286 0.891429 0 0 0 1 -7.02292 0 4
93 1 6.26072 8.01228 2.66557 -5.60146 -3.40641 4.87626 1 -7.3087 0.0415519 4
94 1 7.13143 7.13143 0 0 0 0 1 -3.31517 0 2
95 1 8.02286 8.02286 0.891429 0 0 0 1 -6.96285 0 4
96 1 5.34826 5.3335 3.58026 -2.61003 4.63364 -5.91237 1 -7.39464 0.0393616 4
97 1 7.09279 7.10005 3.59856 0.684619 7.21849 -6.41301 1 -7.31402 0.0583225 4
98 1 8.91429 5.34857 0 0 0 0 1 -3.31954 0 2
99 1 9.80608 4.48132 2.68731 1.92338 -2.99286 -0.992668 1 -7.31471 0.00849114 4
100 1 9.80572 6.24 0.891429 0 0 0 1 -7.01615 0 4
101 1 10.7161 5.37349 1.76641 -6.26965 4.38368 -0.894052 1 -7.36595 0.0369251 4
102 1 12.48 5.34857 0 0 0 0 1 -3.33141 0 2
103 1 11.5886 4.45714 0.891429 0 0 0 1 -7.01166 0 4
104 1 11.6147 6.2628 2.67608 -3.02434 -8.10078 0.0303141 1 -7.3093 0.0465389 4
105 1 8.87808 7.08475 1.78615 -1.86534 -0.286419 3.27825 1 -7.38678 0.00890596 4
106 1 9.75924 7.98914 2.64958 -5.30541 0.913345 -2.29788 1 -7.34878 0.0213255 4
107 1 10.6971 7.13143 0 0 0 0 1 -3.33231 0 2
108 1 12.5169 7.17132 1.76679 1.35777 2.80919 -2.77318 1 -7.36637 0.0108462 4
109 1 11.5886 8.02286 0.891429 0 0 0 1 -6.98895 0 4
110 1 8.87221 5.314 3.59205 0.622645 -9.19799 0.363197 1 -7.36545 0.0529825 4
111 1 12.5165 5.38127 3.54756 3.58244 -9.92431 5.10487 1 -7.35929 0.0855123 4
112 1 10.6885 7.12068 3.55741 -0.10146 -2.7797 -8.47577 1 -7.25997 0.04953 4
113 1 13.3678 4.46179 2.68803 -3.07356 12.1047 -2.57457 1 -7.29205 0.101206 4
114 1 13.3714 6.24 0.891429 0 0 0 1 -7.02408 0 4
115 1 14.2674 5.36543 1.73719 4.5847 -3.0819 0.171252 1 -7.3237 0.0190132 4
116 1 16.0457 5.34857 0 0 0 0 1 -3.31691 0 2
117 1 15.1543 4.45714 0.891429 0 0 0 1 -7.03472 0 4
118 1 15.1466 6.26118 2.69545 -9.76277 -4.38938 -4.44409 1 -7.27855 0.0836094 4
119 1 16.8977 4.43853 2.66335 -2.51084 5.36667 0.594295 1 -7.36951 0.0220704 4
120 1 16.9371 6.24 0.891429 0 0 0 1 -7.04313 0 4
121 1 13.4073 8.02907 2.66713 5.32746 -5.34472 6.57866 1 -7.28773 0.0623837 4
122 1 14.2629 7.13143 0 0 0 0 1 -3.31432 0 2
123 1 16.0771 7.14851 1.75193 2.7212 -4.50528 -4.58589 1 -7.32108 0.0303326 4
124 1 15.1543 8.02286 0.891429 0 0 0 1 -7.00212 0 4
125 1 16.9425 8.03059 2.66817 2.4895 -0.361463 -6.65479 1 -7.36938 0.0315038 4
126 1 16.0536 5.35572 3.55135 5.05639 3.14665 -3.94986 1 -7.31642 0.0317872 4
127 1 14.3397 7.16731 3.58693 7.0773 1.29745 -1.00384 1 -7.39274 0.0328512 4
129 1 17.7953 5.34307 1.72076 1.55007 1.06995 4.92202 1 -7.28915 0.0172871 4
130 1 19.6114 5.34857 0 0 0 0 1 -3.30422 0 2
131 1 18.72 4.45714 0.891429 0 0 0 1 -7.01993 0 4
132 1 18.6828 6.2429 2.66925 4.73503 0.996502 6.3217 1 -7.31695 0.0394478 4
133 1 20.4813 4.46385 2.68284 0.300445 1.38285 -4.22077 1 -7.40668 0.0123349 4
134 1 20.5029 6.24 0.891429 0 0 0 1 -7.00763 0 4
135 1 17.8286 7.13143 0 0 0 0 1 -3.30493 0 2
136 1 19.5607 7.11711 1.7808 -1.79438 -4.98645 5.44984 1 -7.32225 0.0359671 4
137 1 18.72 8.02286 0.891429 0 0 0 1 -6.9651 0 4
138 1 20.5035 8.02363 2.65232 -0.448301 -3.86344 6.58794 1 -7.29989 0.0364295 4
139 1 19.623 5.3328 3.55608 0.864885 -3.72724 -6.85274 1 -7.35644 0.0383417 4
140 1 17.7863 7.15517 3.55061 -4.62253 -8.49287 -2.25765 1 -7.31348 0.0613672 4
141 1 1.78286 8.91429 0 0 0 0 1 -3.3343 0 2
142 1 0.894315 9.77042 2.69101 4.68294 0.968462 9.48077 1 -7.32529 0.0701803 4
143 1 2.67429 9.80572 0.891429 0 0 0 1 -7.00769 0 4
144 1 3.54667 8.92217 1.76241 3.34891 -4.36435 3.02049 1 -7.40141 0.024515 4
145 1 0 10.6971 0 0 0 0 1 -3.33622 0 2
146 1 1.772 10.7171 1.76087 -0.87647 -5.82889 -4.64356 1 -7.32764 0.0350468 4
147 1 1.78286 12.48 0 0 0 0 1 -3.30951 0 2
148 1 0.891429 11.5886 0.891429 0 0 0 1 -7.06968 0 4
149 1 2.68006 11.5838 2.69847 0.213648 -3.37775 -4.29635 1 -7.35262 0.0186189 4
150 1 3.56572 10.6971 0 0 0 0 1 -3.32671 0 2
151 1 3.54368 12.4512 1.80975 -3.08844 1.30431 -0.0924586 1 -7.3378 0.0070012 4
152 1 1.75666 8.91264 3.59643 -0.405573 0.535697 -1.58116 1 -7.34146 0.00183711 4
153 1 1.75974 12.4779 3.60772 3.17921 -0.169748 7.30675 1 -7.38069 0.0395395 4
154 1 3.55536 10.6885 3.58312 0.59312 -1.57365 9.47308 1 -7.34359 0.0576163 4
205 1 0.021523 8.88733 1.77539 7.79864 -5.71945 -1.6322 1 -7.37012 0.0598743 4
204 1 0.0274687 12.5029 1.75508 12.8013 -1.76385 -1.01066 1 -7.31412 0.104571 4
155 1 5.34857 8.91429 0 0 0 0 1 -3.34127 0 2
156 1 4.45852 9.81163 2.65504 2.91445 -6.9957 4.28225 1 -7.31888 0.0471621 4
157 1 6.24 9.80572 0.891429 0 0 0 1 -7.03434 0 4
158 1 7.1288 8.92923 1.81136 -12.709 -6.4615 -2.61109 1 -7.32482 0.130763 4
159 1 8.05834 9.80706 2.68342 -9.56983 -8.1142 1.7061 1 -7.28315 0.0997952 4
160 1 5.38946 10.6988 1.76443 8.85295 -4.51174 -1.07845 1 -7.3292 0.0621764 4
161 1 5.34857 12.48 0 0 0 0 1 -3.33223 0 2
162 1 4.45714 11.5886 0.891429 0 0 0 1 -6.98191 0 4
163 1 6.24754 11.5853 2.68222 2.44535 -0.034185 12.6414 1 -7.37735 0.103189 4
164 1 7.13143 10.6971 0 0 0 0 1 -3.33502 0 2
165 1 7.13802 12.4705 1.79446 1.67008 5.02372 -0.664773 1 -7.36354 0.0177198 4
166 1 8.02286 11.5886 0.891429 0 0 0 1 -7.03701 0 4
167 1 5.3804 8.95685 3.58603 2.12537 6.19874 -1.04386 1 -7.30911 0.0274062 4
168 1 5.34271 12.4725 3.55596 5.50477 -0.867023 0.864577 1 -7.37119 0.0197942 4
169 1 7.11737 10.6915 3.61382 1.74703 -1.93231 -1.68701 1 -7.30087 0.0059952 4
170 1 8.91429 8.91429 0 0 0 0 1 -3.333 0 2
171 1 9.80572 9.80572 0.891429 0 0 0 1 -6.97462 0 4
172 1 10.6291 8.91697 1.7739 9.3071 -1.06839 -1.08797 1 -7.34865 0.0553631 4
173 1 12.48 8.91429 0 0 0 0 1 -3.31505 0 2
174 1 11.5363 9.80589 2.67244 -4.90881 -4.96031 -1.23964 1 -7.3709 0.0312693 4
175 1 8.86916 10.7388 1.78173 -4.07851 -1.94089 0.444696 1 -7.32195 0.0128214 4
176 1 8.91429 12.48 0 0 0 0 1 -3.33592 0 2
177 1 9.75817 11.582 2.6813 1.1778 -4.73669 -2.22205 1 -7.31572 0.0179015 4
178 1 10.6971 10.6971 0 0 0 0 1 -3.32722 0 2
179 1 10.7068 12.4244 1.75833 4.81606 -2.85221 -2.07208 1 -7.34124 0.0221727 4
180 1 12.4467 10.6811 1.77642 -6.12377 -2.68619 1.7002 1 -7.36221 0.0296318 4
181 1 12.48 12.48 0 0 0 0 1 -3.35083 0 2
182 1 11.5886 11.5886 0.891429 0 0 0 1 -7.02669 0 4
183 1 8.89809 8.87924 3.57823 2.83137 -1.53782 -11.1182 1 -7.34164 0.0834024 4
184 1 12.4545 8.91851 3.57453 -0.961924 -7.78384 -1.85711 1 -7.34666 0.0404343 4
185 1 8.88115 12.4633 3.57178 5.28657 -2.72114 -0.555 1 -7.34386 0.022196 4
186 1 10.6479 10.7045 3.54434 -6.34129 -2.49247 -5.23755 1 -7.39337 0.0459701 4
187 1 12.4604 12.4937 3.58196 6.01389 -7.80051 -5.37926 1 -7.36047 0.0783954 4
188 1 13.3714 9.80572 0.891429 0 0 0 1 -7.03013 0 4
189 1 14.2626 8.91965 1.79328 -1.59172 -5.26092 -0.992156 1 -7.34049 0.0194167 4
190 1 16.0457 8.91429 0 0 0 0 1 -3.3342 0 2
191 1 15.1925 9.82758 2.70649 11.4752 -0.724479 2.76182 1 -7.24031 0.0870359 4
192 1 16.9371 9.80572 0.891429 0 0 0 1 -7.00258 0 4
193 1 13.3409 11.5916 2.66598 4.73982 0.573695 3.98376 1 -7.28942 0.0240663 4
194 1 14.2629 10.6971 0 0 0 0 1 -3.34823 0 2
195 1 14.2182 12.4953 1.7783 -1.21727 5.84788 4.70438 1 -7.35395 0.0359829 4
196 1 16.0869 10.7554 1.77152 -5.5796 0.720846 -2.89725 1 -7.31953 0.0249254 4
197 1 16.0457 12.48 0 0 0 0 1 -3.32526 0 2
198 1 15.1543 11.5886 0.891429 0 0 0 1 -6.98504 0 4
199 1 17.0161 11.633 2.66711 2.42907 1.98667 -3.00019 1 -7.30991 0.0117317 4
200 1 16.0697 8.92592 3.63867 2.80234 0.170279 -4.25697 1 -7.2871 0.0161855 4
201 1 14.2774 10.7025 3.6135 -2.00238 -7.93843 1.97328 1 -7.31354 0.0441437 4
202 1 16.1007 12.5465 3.55466 -4.53814 -0.373217 5.10722 1 -7.35155 0.0291405 4
203 1 21.3796 10.6433 3.53908 -0.64301 4.05145 4.57986 1 -7.3561 0.0235295 4
206 1 17.785 8.93538 1.78176 0.458731 4.03339 -0.356592 1 -7.31002 0.0103359 4
207 1 19.6114 8.91429 0 0 0 0 1 -3.3396 0 2
208 1 18.7632 9.84814 2.61224 7.03393 9.58098 2.69719 1 -7.28311 0.0924591 4
209 1 20.5029 9.80572 0.891429 0 0 0 1 -6.99531 0 4
210 1 17.8286 10.6971 0 0 0 0 1 -3.32579 0 2
211 1 17.8586 12.5054 1.7551 3.06496 -13.6819 -3.63734 1 -7.34597 0.130597 4
212 1 19.602 10.7044 1.76996 -1.91302 11.8179 4.54428 1 -7.38492 0.102061 4
213 1 19.6114 12.48 0 0 0 0 1 -3.33813 0 2
214 1 18.72 11.5886 0.891429 0 0 0 1 -7.02762 0 4
215 1 20.5064 11.6088 2.6516 5.1654 -0.121674 -2.60721 1 -7.30343 0.0208474 4
216 1 19.5897 8.91669 3.53705 -1.9994 -0.25589 3.13922 1 -7.30195 0.00866278 4
217 1 17.8666 10.7099 3.55302 1.16717 -2.35637 7.31277 1 -7.3164 0.0375892 4
218 1 19.6278 12.4941 3.57505 0.744055 4.48106 -0.584705 1 -7.3629 0.0130556 4
219 1 0.875542 13.3857 2.71566 3.32806 -6.98911 -2.41288 1 -7.34444 0.0409218 4
220 1 2.67429 13.3714 0.891429 0 0 0 1 -7.02581 0 4
221 1 0 14.2629 0 0 0 0 1 -3.3147 0 2
222 1 1.78312 14.256 1.76239 4.47322 -4.05146 -1.2974 1 -7.3333 0.0237189 4
223 1 1.78286 16.0457 0 0 0 0 1 -3.33499 0 2
224 1 0.891429 15.1543 0.891429 0 0 0 1 -7.02964 0 4
225 1 0.879032 16.929 2.6556 0.709801 0.0971028 0.277933 1 -7.34637 0.000367538 4
226 1 2.66531 15.1547 2.64844 -2.50773 -1.80766 -3.94505 1 -7.27461 0.0156352 4
227 1 2.67429 16.9371 0.891429 0 0 0 1 -7.02684 0 4
228 1 3.56572 14.2629 0 0 0 0 1 -3.35004 0 2
229 1 3.57652 16.0941 1.77215 8.5494 -10.3474 10.2515 1 -7.34092 0.177549 4
230 1 1.74817 16.0573 3.57257 -1.18796 -0.96649 2.45648 1 -7.31065 0.00521569 4
231 1 3.51559 14.2353 3.5759 7.55865 2.5742 6.34407 1 -7.30652 0.0647366 4
233 1 0.00165081 16.0259 1.74474 5.61077 3.34795 0.886365 1 -7.31822 0.0270601 4
232 1 -0.0313289 14.2682 3.58295 -0.927498 0.111167 -6.28701 1 -7.36856 0.0251454 4
234 1 4.47465 13.3529 2.66601 -5.96375 -8.77946 -5.39896 1 -7.33386 0.0882563 4
235 1 6.24 13.3714 0.891429 0 0 0 1 -7.00024 0 4
236 1 8.0225 13.3348 2.64185 -1.24956 3.15358 -2.901 1 -7.33025 0.0124001 4
237 1 5.34374 14.2565 1.78917 2.77661 -0.306103 3.28118 1 -7.40623 0.0115581 4
238 1 5.34857 16.0457 0 0 0 0 1 -3.33089 0 2
239 1 4.45714 15.1543 0.891429 0 0 0 1 -6.98493 0 4
240 1 4.47947 16.9127 2.66521 -3.28037 1.4227 6.55503 1 -7.32409 0.0347023 4
241 1 6.23402 15.1534 2.64497 4.0983 3.5564 4.38497 1 -7.31695 0.0302948 4
242 1 6.24 16.9371 0.891429 0 0 0 1 -6.97967 0 4
243 1 7.13143 14.2629 0 0 0 0 1 -3.35947 0 2
244 1 7.16505 16.0617 1.78069 -3.33229 1.47376 -4.0419 1 -7.34906 0.018432 4
245 1 8.02286 15.1543 0.891429 0 0 0 1 -7.01317 0 4
246 1 8.01813 16.9866 2.66361 -9.25811 0.356187 -2.66581 1 -7.3199 0.057852 4
247 1 5.35206 16.015 3.57715 -12.5122 -8.6429 5.35692 1 -7.36216 0.161801 4
248 1 7.1472 14.2319 3.52179 -6.70357 3.34718 0.585846 1 -7.31418 0.0351576 4
249 1 9.80572 13.3714 0.891429 0 0 0 1 -6.95201 0 4
250 1 11.5847 13.3361 2.65564 0.857772 2.16853 1.61956 1 -7.27544 0.00501755 4
251 1 8.93213 14.3064 1.783 -6.44197 4.93595 0.102792 1 -7.33083 0.0410012 4
252 1 8.91429 16.0457 0 0 0 0 1 -3.31735 0 2
253 1 9.81199 15.2126 2.63604 0.193234 -8.16967 -1.6605 1 -7.3366 0.0432823 4
254 1 9.80572 16.9371 0.891429 0 0 0 1 -7.02405 0 4
255 1 10.6971 14.2629 0 0 0 0 1 -3.32954 0 2
256 1 10.6919 16.06 1.78142 -9.40072 -0.691429 -2.14305 1 -7.36601 0.0581622 4
257 1 12.4695 14.3012 1.77241 -0.125521 1.38086 5.47583 1 -7.30521 0.0198599 4
258 1 12.48 16.0457 0 0 0 0 1 -3.32208 0 2
259 1 11.5886 15.1543 0.891429 0 0 0 1 -7.04014 0 4
260 1 11.5711 16.954 2.70149 0.430666 0.183549 7.12802 1 -7.28683 0.031761 4
261 1 8.89801 16.0714 3.56238 5.23054 5.00392 0.737799 1 -7.32894 0.0329526 4
262 1 10.7177 14.2652 3.53875 0.724267 -1.37958 6.77109 1 -7.36287 0.0300479 4
263 1 12.5064 16.0453 3.61875 -3.14199 -9.62416 3.60625 1 -7.33835 0.0718912 4
264 1 13.3714 13.3714 0.891429 0 0 0 1 -7.00671 0 4
265 1 15.192 13.37 2.65504 0.991717 -2.91896 -5.24077 1 -7.30471 0.0230108 4
266 1 16.9371 13.3714 0.891429 0 0 0 1 -7.0187 0 4
267 1 13.3692 15.1931 2.68672 -0.282773 -1.90625 0.0621405 1 -7.32666 0.00231394 4
268 1 13.3714 16.9371 0.891429 0 0 0 1 -7.0331 0 4
269 1 14.2629 14.2629 0 0 0 0 1 -3.33397 0 2
270 1 14.2694 16.0294 1.744 -6.58993 -0.471916 4.91282 1 -7.35491 0.0421916 4
271 1 16.0504 14.2905 1.77524 1.07924 5.68451 1.81606 1 -7.39436 0.0228907 4
272 1 16.0457 16.0457 0 0 0 0 1 -3.33411 0 2
273 1 15.1543 15.1543 0.891429 0 0 0 1 -7.05468 0 4
274 1 15.1701 16.9421 2.6409 1.62185 -11.1787 -2.62507 1 -7.29171 0.0837066 4
275 1 16.9401 15.1645 2.63611 -0.204562 1.00914 -3.15658 1 -7.3782 0.00686174 4
276 1 16.9371 16.9371 0.891429 0 0 0 1 -7.0435 0 4
277 1 14.268 14.278 3.57831 -5.4088 -2.72443 6.65218 1 -7.31728 0.0503724 4
278 1 16.0753 16.0538 3.54237 0.751692 0.793731 4.23563 1 -7.25813 0.0119105 4
279 1 18.7483 13.3813 2.699 -2.97515 -0.204874 2.15929 1 -7.34978 0.00843764 4
280 1 20.5029 13.3714 0.891429 0 0 0 1 -7.02436 0 4
281 1 17.8286 14.2629 0 0 0 0 1 -3.30845 0 2
282 1 17.7939 16.059 1.77846 6.4824 6.64754 3.22445 1 -7.34305 0.0601316 4
283 1 19.6603 14.237 1.82072 0.20375 -1.85122 5.61529 1 -7.30297 0.0217849 4
284 1 19.6114 16.0457 0 0 0 0 1 -3.31477 0 2
285 1 18.72 15.1543 0.891429 0 0 0 1 -6.93496 0 4
286 1 18.7269 16.9403 2.67513 0.463425 1.30036 0.301232 1 -7.36591 0.00124263 4
287 1 20.5041 15.1079 2.70725 -6.07788 -4.01709 -4.22272 1 -7.24107 0.0441356 4
288 1 20.5029 16.9371 0.891429 0 0 0 1 -7.02908 0 4
289 1 17.8573 14.2933 3.56266 -7.0306 3.67881 -1.55461 1 -7.32886 0.0406941 4
290 1 19.5901 16.1025 3.61624 6.12077 -0.365481 2.31237 1 -7.27438 0.0267297 4
293 1 0 17.8286 0 0 0 0 1 -3.33548 0 2
294 1 1.75191 17.8243 1.77787 -1.0328 5.16645 -4.70753 1 -7.30477 0.0310713 4
295 1 1.78286 19.6114 0 0 0 0 1 -3.34161 0 2
296 1 0.891429 18.72 0.891429 0 0 0 1 -7.02388 0 4
297 1 0.920737 20.4881 2.66702 -2.37956 -0.718176 -4.03612 1 -7.37696 0.0139849 4
298 1 2.66892 18.7239 2.73958 1.66043 4.24508 13.2543 1 -7.3179 0.122279 4
299 1 2.67429 20.5029 0.891429 0 0 0 1 -7.03856 0 4
300 1 3.56572 17.8286 0 0 0 0 1 -3.31773 0 2
301 1 3.51312 19.6198 1.76958 0.232294 7.76294 9.44302 1 -7.28437 0.0930451 4
302 1 1.81153 19.5997 3.56385 -1.83989 -4.17059 4.97062 1 -7.34785 0.0283117 4
303 1 3.53378 17.7987 3.57819 6.22507 -2.57679 5.96162 1 -7.33973 0.0503744 4
305 1 0.00632212 19.5937 1.77484 -0.889564 -3.58329 1.16723 1 -7.38431 0.00933249 4
304 1 0.0220894 17.7796 3.55629 1.54075 -0.348981 2.23279 1 -7.33456 0.0046564 4
27 1 5.30474 21.3968 1.81804 1.51967 6.29281 -2.7012 1 -7.32462 0.0306267 4
307 1 5.34852 17.844 1.77945 0.853371 -0.0418485 -6.21054 1 -7.38521 0.0244618 4
308 1 5.34857 19.6114 0 0 0 0 1 -3.33863 0 2
309 1 4.45714 18.72 0.891429 0 0 0 1 -7.00518 0 4
310 1 4.45325 20.4935 2.68357 3.71102 -0.063965 -0.980569 1 -7.31087 0.00917287 4
311 1 6.22405 18.744 2.68493 -0.515625 -8.68012 -0.878695 1 -7.33942 0.0475425 4
312 1 6.24 20.5029 0.891429 0 0 0 1 -6.95732 0 4
313 1 7.13143 17.8286 0 0 0 0 1 -3.32143 0 2
314 1 7.11721 19.6501 1.80624 3.85284 0.615837 4.06716 1 -7.36377 0.0197716 4
315 1 8.02286 18.72 0.891429 0 0 0 1 -6.98137 0 4
316 1 8.01111 20.545 2.66974 -3.08662 0.828574 -6.73003 1 -7.28404 0.0345491 4
317 1 5.30636 19.5989 3.56543 1.51348 -1.28321 -9.19691 1 -7.34217 0.0550974 4
318 1 7.10089 17.879 3.60776 3.52139 3.29382 6.45896 1 -7.38614 0.0404375 4
322 1 8.91303 17.8206 1.78173 -9.21787 -2.19103 -3.9482 1 -7.38083 0.0655776 4
323 1 8.91429 19.6114 0 0 0 0 1 -3.33887 0 2
324 1 9.80752 18.695 2.66764 -0.798279 3.63418 5.85377 1 -7.2963 0.0299456 4
325 1 9.80572 20.5029 0.891429 0 0 0 1 -7.0604 0 4
326 1 10.6971 17.8286 0 0 0 0 1 -3.32595 0 2
327 1 10.6672 19.622 1.75762 -1.35799 -0.101198 -3.15566 1 -7.31657 0.00735245 4
328 1 12.496 17.8215 1.77561 -2.54215 4.19784 -6.13694 1 -7.33055 0.0384325 4
329 1 12.48 19.6114 0 0 0 0 1 -3.3397 0 2
330 1 11.5886 18.72 0.891429 0 0 0 1 -6.97897 0 4
331 1 11.603 20.5275 2.66722 3.98913 -3.90909 -1.81262 1 -7.3476 0.0214611 4
332 1 8.89828 19.667 3.5706 6.91781 -2.02442 -4.94485 1 -7.28614 0.047557 4
333 1 10.7131 17.8274 3.58921 -5.3888 0.580835 0.0769729 1 -7.38511 0.0182884 4
334 1 12.4536 19.6367 3.58075 6.10536 3.72505 5.36013 1 -7.3655 0.0497209 4
335 1 16.0508 21.3831 1.76161 0.0290455 0.103287 2.72137 1 -7.36824 0.00461675 4
337 1 13.3952 18.7552 2.66317 1.05116 -6.08734 -5.66795 1 -7.23879 0.043748 4
338 1 13.3714 20.5029 0.891429 0 0 0 1 -6.99054 0 4
339 1 14.2629 17.8286 0 0 0 0 1 -3.33593 0 2
340 1 14.2768 19.6286 1.76578 -3.73433 -2.25892 -3.88411 1 -7.39883 0.021246 4
341 1 16.0888 17.8329 1.76297 -4.58991 -1.99561 0.829426 1 -7.37036 0.0160198 4
342 1 16.0457 19.6114 0 0 0 0 1 -3.31563 0 2
343 1 15.1543 18.72 0.891429 0 0 0 1 -6.99508 0 4
344 1 15.181 20.4929 2.63524 5.87334 -0.214432 -2.14634 1 -7.32261 0.0243673 4
345 1 16.9361 18.7268 2.6608 3.68946 -5.10916 4.23446 1 -7.3456 0.0358805 4
346 1 16.9371 20.5029 0.891429 0 0 0 1 -7.01298 0 4
347 1 14.2908 17.7878 3.56331 -1.27256 -5.36256 -0.453296 1 -7.35105 0.019035 4
348 1 16.0439 19.6012 3.55873 1.019 -1.34727 -1.15047 1 -7.30927 0.00259993 4
350 1 21.4153 21.3852 3.53817 0.807468 2.61171 -4.26119 1 -7.27475 0.0159533 4
349 1 17.8489 21.3716 3.54699 -4.73329 9.26116 -5.64548 1 -7.33695 0.0871674 4
351 1 17.8286 17.8286 0 0 0 0 1 -3.32797 0 2
352 1 17.8627 19.6167 1.78844 5.9338 0.950894 5.78643 1 -7.36355 0.0433189 4
353 1 19.6105 17.7805 1.77954 -1.40185 5.43227 2.60775 1 -7.32666 0.0238234 4
354 1 19.6114 19.6114 0 0 0 0 1 -3.33308 0 2
355 1 18.72 18.72 0.891429 0 0 0 1 -7.00115 0 4
356 1 18.7448 20.4761 2.65761 -0.720327 2.3828 3.09704 1 -7.35391 0.00982705 4
357 1 20.5506 18.6983 2.6732 -0.557712 1.90712 -4.72503 1 -7.30441 0.0163537 4
358 1 20.5029 20.5029 0.891429 0 0 0 1 -7.02351 0 4
359 1 17.8208 17.8518 3.58265 -3.70317 4.46401 2.63049 1 -7.33477 0.0252458 4
360 1 19.6254 19.5812 3.57071 -1.7337 1.77544 11.0653 1 -7.35622 0.0800436 4
361 1 0.892772 0.840513 4.46984 1.53163 10.3046 0.0477623 1 -7.349 0.0675538 4
362 1 0.860992 2.68071 6.23268 -0.696051 -3.27106 -3.623 1 -7.3349 0.0151314 4
363 1 2.66798 0.892764 6.23741 4.40946 -6.5252 -3.43765 1 -7.32246 0.0459593 4
364 1 2.68371 2.68959 4.43858 -0.221327 1.80072 3.16611 1 -7.36248 0.0082881 4
365 1 3.56842 1.84165 5.37041 -4.15603 7.55916 -8.45332 1 -7.26692 0.0907946 4
366 1 1.76096 3.56138 5.33519 -0.578579 9.95833 -1.76336 1 -7.37192 0.0638687 4
367 1 1.80378 1.8477 7.13858 2.54131 -1.72425 1.65016 1 -7.28566 0.00756517 4
368 1 0.861288 0.938562 7.95671 1.16414 -0.854246 -3.03778 1 -7.25278 0.00704154 4
369 1 2.66794 2.66296 8.06503 -9.91929 1.68204 5.09172 1 -7.3745 0.0791397 4
370 1 3.52239 3.55258 7.16537 3.65078 2.97785 -3.8169 1 -7.34305 0.0228832 4
651 1 3.53682 -0.035708 7.13494 -4.13944 -7.99086 -3.66211 1 -7.33274 0.058757 4
710 1 -0.00806118 -0.004561 7.13341 -4.66053 -2.16336 -0.702666 1 -7.28153 0.0167398 4
372 1 4.47 0.930492 4.44946 -3.02435 -3.41617 -5.35665 1 -7.29588 0.0308167 4
373 1 4.41348 2.65443 6.24809 5.46747 -7.76482 -4.6372 1 -7.30551 0.0695183 4
374 1 6.24188 0.897079 6.22499 -0.931765 -1.06187 0.142484 1 -7.36156 0.00125485 4
375 1 6.26141 2.64411 4.48364 -8.36904 0.488936 5.95861 1 -7.29498 0.0658433 4
376 1 7.1267 1.80274 5.38707 5.59305 -0.729188 -4.9093 1 -7.37547 0.034803 4
377 1 7.99986 0.923861 4.46803 -3.3436 1.87513 -0.717069 1 -7.3543 0.00946709 4
378 1 8.04026 2.68345 6.30639 -2.92448 2.77601 -6.97732 1 -7.34543 0.0404215 4
379 1 5.25826 3.53239 5.33763 -2.71751 -3.37338 7.56142 1 -7.21881 0.0472668 4
380 1 5.35407 1.77462 7.0989 7.19592 -0.260861 1.30356 1 -7.33854 0.0333301 4
381 1 4.42249 0.851684 8.03577 1.48949 -7.72922 9.38084 1 -7.29088 0.0933388 4
382 1 6.2384 2.68927 7.99524 -5.62746 9.10989 -2.70228 1 -7.31944 0.0759116 4
383 1 8.00023 0.906213 8.04347 -1.87514 -0.816191 -2.296 1 -7.37161 0.00588439 4
384 1 7.13568 3.59525 7.13986 -5.86216 9.74358 -0.223023 1 -7.38761 0.0805121 4
385 1 5.33787 0.0145849 5.3322 6.69053 -1.54186 -5.85654 1 -7.31619 0.0506901 4
386 1 9.82204 0.872576 6.27673 2.54177 1.65449 -4.77648 1 -7.38198 0.0199255 4
387 1 9.79912 2.66661 4.47476 3.37739 2.01149 3.97994 1 -7.29336 0.0194774 4
388 1 10.6956 1.76065 5.40527 3.42057 1.35298 3.24904 1 -7.31407 0.0149924 4
389 1 11.5845 0.85265 4.45723 -0.322076 -2.25352 -6.48323 1 -7.32246 0.0293875 4
390 1 11.6071 2.66136 6.25151 1.51733 -1.23815 -0.0188261 1 -7.3939 0.00238742 4
391 1 8.93881 3.55702 5.4018 -2.81408 7.01696 3.75883 1 -7.31749 0.04437 4
392 1 12.4998 3.57069 5.3506 -5.95605 -1.86712 3.21719 1 -7.37627 0.0306925 4
393 1 8.92377 1.7737 7.16653 2.14734 1.005 3.71027 1 -7.3327 0.0120671 4
394 1 9.8216 2.70768 8.06014 -3.15796 3.57523 -1.62506 1 -7.34392 0.015807 4
395 1 12.4753 1.75017 7.1073 1.22363 -6.51821 -6.44153 1 -7.34559 0.0532035 4
396 1 11.5931 0.849954 8.0389 0.962705 -1.33772 -1.93994 1 -7.32458 0.00403312 4
397 1 10.7231 3.56241 7.17976 -5.30676 4.20489 -1.67984 1 -7.351 0.0302902 4
398 1 13.4002 0.843901 6.27793 -1.66813 3.20937 3.00352 1 -7.35651 0.013758 4
399 1 13.3822 2.70915 4.46547 6.15545 -4.12661 1.90646 1 -7.36929 0.036445 4
400 1 14.2413 1.76085 5.34923 -3.27402 7.62813 -0.399906 1 -7.28366 0.0429894 4
401 1 15.1778 0.906339 4.43372 -5.20656 2.31422 -2.80472 1 -7.36313 0.0251026 4
402 1 15.137 2.68435 6.26831 12.6205 -7.60554 1.85782 1 -7.25478 0.137291 4
403 1 16.9427 0.901234 6.25652 0.261989 4.26166 2.56547 1 -7.29554 0.0154436 4
404 1 16.9129 2.6469 4.48572 2.15589 -2.55911 5.7067 1 -7.30656 0.0272395 4
405 1 16.0141 3.58223 5.36445 -2.50631 0.560938 4.38505 1 -7.36009 0.0160741 4
406 1 13.3339 2.62921 8.00712 1.20479 -1.15524 -5.41326 1 -7.25731 0.0199733 4
407 1 16.0451 1.76518 7.1488 4.07837 -4.32546 1.94041 1 -7.35977 0.0243418 4
408 1 15.1843 0.863998 8.0383 -5.6046 -0.727383 -6.81798 1 -7.37806 0.048814 4
409 1 16.9269 2.7063 8.02772 5.93458 -4.58631 -2.49159 1 -7.28592 0.0388777 4
410 1 14.2394 3.57875 7.14366 -7.10171 1.89724 6.34902 1 -7.33597 0.0587221 4
695 1 14.2728 -0.0157003 7.16733 -9.80796 -6.23918 0.0625587 1 -7.40743 0.0841068 4
411 1 21.3787 1.73303 5.37467 0.682906 -1.39643 0.895259 1 -7.37251 0.00200289 4
371 1 21.3753 3.55243 7.12844 1.2176 -9.97867 0.458815 1 -7.35864 0.0630312 4
412 1 17.8297 1.78759 5.34076 -6.70623 1.848 0.190418 1 -7.36106 0.0301409 4
413 1 18.687 0.875869 4.44223 0.868209 -2.95271 -2.34562 1 -7.32669 0.00932035 4
414 1 18.7015 2.63543 6.22688 3.69735 -5.86258 -0.85299 1 -7.39482 0.0303544 4
415 1 20.4665 0.902618 6.2712 3.74921 -2.60142 -12.3106 1 -7.37057 0.10729 4
416 1 20.5256 2.66908 4.45838 1.40512 3.86833 -1.25811 1 -7.28069 0.0115281 4
417 1 19.5682 3.52586 5.32307 -2.72803 3.96447 4.73687 1 -7.30067 0.0283809 4
418 1 19.584 1.74444 7.12858 -3.49314 -0.809832 2.44942 1 -7.37988 0.0117374 4
419 1 18.6655 0.862602 8.02449 -10.6403 1.83004 -0.937255 1 -7.38014 0.0730999 4
420 1 20.4785 2.63814 8.01541 2.61971 -5.17182 3.63312 1 -7.37171 0.0291359 4
421 1 17.8191 3.53923 7.1222 -6.32578 9.15252 -7.09425 1 -7.35218 0.108372 4
423 1 0.901482 4.44061 4.43957 1.65246 -0.40813 2.41246 1 -7.36406 0.0054258 4
424 1 0.944632 6.21049 6.22845 -1.10529 10.7736 4.85974 1 -7.26851 0.0877056 4
425 1 2.64865 4.38572 6.2219 0.0919887 -4.08721 1.79785 1 -7.34257 0.0124149 4
426 1 2.67672 6.23299 4.4405 -1.71203 -6.95223 -1.33012 1 -7.30726 0.0330096 4
427 1 3.52343 5.32132 5.33511 -12.3448 -6.09836 -8.01541 1 -7.35714 0.157991 4
428 1 1.83377 7.13832 5.3888 5.27229 -0.798156 1.53056 1 -7.33483 0.0191562 4
429 1 0.881232 8.01139 4.50005 -3.42144 4.08447 1.16882 1 -7.35079 0.0185205 4
430 1 2.72608 7.96142 6.21614 -2.36685 -5.80869 -5.07962 1 -7.27456 0.0405482 4
431 1 1.80802 5.29222 7.15994 2.64171 -7.17894 2.49025 1 -7.22277 0.0402816 4
432 1 0.850874 4.41259 8.05873 3.66941 -0.643393 2.83571 1 -7.34043 0.0136434 4
433 1 2.60961 6.23731 8.00561 5.49372 2.54444 3.6832 1 -7.28142 0.0312589 4
434 1 0.868713 7.98473 8.04992 1.69675 -4.16611 -1.54067 1 -7.31406 0.0140725 4