ITEM: TIMESTEP
49125725
ITEM: NUMBER OF ATOMS
3060
ITEM: BOX BOUNDS pp pp mm
0.0000000000000000e+00 2.1394294200000001e+01
0.0000000000000000e+00 2.1394294200000001e+01
-5.3491084073550004e-03 5.3485735499999997e+01
ITEM: ATOMS id type x y z vx vy vz c_clusts c_atom_pe c_atom_ke c_atom_coord
1 1 0 0 0 0 0 0 1 -3.3304 0 2
2 1 1.78286 1.78286 0 0 0 0 1 -3.33467 0 2
3 1 0.891429 0.891429 0.891429 0 0 0 1 -7.02221 0 4
4 1 0.900772 2.74625 2.6705 -5.27301 1.73038 1.18025 1 -7.30927 0.0200371 4
5 1 2.6856 0.920788 2.64954 -10.8624 -5.03499 -9.02466 1 -7.39221 0.139913 4
6 1 2.67429 2.67429 0.891429 0 0 0 1 -7.0232 0 4
7 1 3.56572 0 0 0 0 0 1 -3.35197 0 2
8 1 3.57431 1.79733 1.80432 -2.93207 -5.01807 -8.09007 1 -7.35634 0.0617616 4
9 1 0 3.56572 0 0 0 0 1 -3.32701 0 2
10 1 1.78999 3.56657 1.79848 -5.65458 -5.01994 -0.513267 1 -7.37877 0.0357506 4
11 1 3.56572 3.56572 0 0 0 0 1 -3.33525 0 2
12 1 1.81354 1.79672 3.58012 6.20376 2.82708 2.66831 1 -7.29221 0.0333613 4
13 1 3.59462 3.61294 3.57736 5.11865 5.83427 3.02361 1 -7.29864 0.0431849 4
292 1 1.79587 0.00968006 1.77892 5.33631 -0.933388 -3.27153 1 -7.39928 0.0249284 4
56 1 0.00150999 3.6153 3.58282 4.58263 3.05219 -0.238898 1 -7.38403 0.0189052 4
55 1 0.020947 1.79715 1.78838 -4.35053 1.35324 0.0595986 1 -7.33894 0.0129228 4
291 1 3.55718 0.0228624 3.54061 -0.162945 -8.80153 -3.92683 1 -7.29716 0.0578318 4
350 1 0.00471292 0.00461196 3.55685 -1.05738 1.88374 -6.983 1 -7.33835 0.0332555 4
14 1 5.34857 1.78286 0 0 0 0 1 -3.32319 0 2
15 1 4.45714 0.891429 0.891429 0 0 0 1 -7.00615 0 4
16 1 4.47943 2.66165 2.71684 -3.74583 -12.7753 4.1833 1 -7.32535 0.121211 4
17 1 6.26714 0.871003 2.67932 -3.84376 1.93656 6.47098 1 -7.37942 0.0375935 4
18 1 6.24 2.67429 0.891429 0 0 0 1 -7.00643 0 4
19 1 7.13143 0 0 0 0 0 1 -3.31499 0 2
20 1 7.15501 1.7666 1.74996 -4.38882 -1.50078 2.95033 1 -7.32394 0.0188088 4
21 1 8.02286 0.891429 0.891429 0 0 0 1 -7.03285 0 4
22 1 7.97749 2.62879 2.6671 -1.33149 5.22175 -0.770018 1 -7.32951 0.018444 4
23 1 5.3548 3.57848 1.80267 -1.77472 -4.83012 8.40171 1 -7.32246 0.060418 4
24 1 7.13143 3.56572 0 0 0 0 1 -3.32956 0 2
25 1 5.39504 1.74837 3.55181 6.18741 -4.68995 -1.89748 1 -7.3299 0.0397607 4
26 1 7.12373 3.53819 3.52753 0.93693 -2.5738 -1.46459 1 -7.35982 0.00600473 4
306 1 7.21198 0.0274636 3.51032 3.29719 -6.8265 -3.46701 1 -7.31078 0.0432541 4
28 1 8.91429 1.78286 0 0 0 0 1 -3.33687 0 2
29 1 9.83294 0.858611 2.66003 2.15383 -8.19372 -1.56078 1 -7.35358 0.0461916 4
30 1 9.80572 2.67429 0.891429 0 0 0 1 -6.98495 0 4
31 1 10.6971 0 0 0 0 0 1 -3.35026 0 2
32 1 10.6962 1.75055 1.80007 -7.74103 -1.35155 0.0291548 1 -7.35733 0.0384355 4
33 1 12.48 1.78286 0 0 0 0 1 -3.34054 0 2
34 1 11.5886 0.891429 0.891429 0 0 0 1 -7.02026 0 4
35 1 11.5691 2.66916 2.66798 -0.759726 5.26152 -0.179606 1 -7.35447 0.0176103 4
36 1 8.93318 3.56116 1.78556 7.57434 -5.18101 2.70416 1 -7.27271 0.0569681 4
37 1 10.6971 3.56572 0 0 0 0 1 -3.34807 0 2
38 1 12.4895 3.56039 1.77609 -1.39587 -4.64007 -8.11635 1 -7.40836 0.0556162 4
39 1 8.92566 1.76708 3.54143 -4.92471 -1.11519 6.88589 1 -7.26736 0.0453823 4
40 1 12.4388 1.8073 3.582 2.17446 0.572063 -11.3423 1 -7.29473 0.0832207 4
41 1 10.6756 3.54116 3.57618 2.36037 1.61042 1.54754 1 -7.3095 0.00657262 4
319 1 10.7335 -0.0232706 3.5765 -3.02589 -9.58842 -0.889348 1 -7.37108 0.0634158 4
42 1 13.4009 0.885433 2.67388 -1.53451 0.039213 1.44709 1 -7.26935 0.00277 4
43 1 13.3714 2.67429 0.891429 0 0 0 1 -7.04394 0 4
44 1 14.2629 0 0 0 0 0 1 -3.3136 0 2
45 1 14.2457 1.78687 1.77236 -2.18969 -8.87467 -3.05744 1 -7.3368 0.0578249 4
46 1 16.0457 1.78286 0 0 0 0 1 -3.32388 0 2
47 1 15.1543 0.891429 0.891429 0 0 0 1 -7.00032 0 4
48 1 15.1699 2.69581 2.69561 -2.28461 -2.38147 3.74464 1 -7.3531 0.0155066 4
49 1 16.9046 0.906018 2.67796 -4.26891 0.355263 0.0982501 1 -7.34621 0.0114274 4
50 1 16.9371 2.67429 0.891429 0 0 0 1 -7.0096 0 4
51 1 14.2629 3.56572 0 0 0 0 1 -3.33903 0 2
52 1 16.0342 3.56459 1.76982 -6.86268 5.46776 -1.92617 1 -7.36439 0.0502317 4
53 1 16.0244 1.82534 3.56054 -9.93046 -3.46254 -3.05817 1 -7.40075 0.0746635 4
54 1 14.2739 3.5861 3.56283 3.65152 3.94273 -4.9176 1 -7.31955 0.0330269 4
336 1 14.3053 -0.0131806 3.56297 -0.869564 -5.69109 -8.52131 1 -7.39533 0.0658262 4
57 1 17.8286 0 0 0 0 0 1 -3.32997 0 2
58 1 17.8049 1.78763 1.76854 -3.44384 5.96576 1.3628 1 -7.34106 0.0306903 4
59 1 19.6114 1.78286 0 0 0 0 1 -3.33623 0 2
60 1 18.72 0.891429 0.891429 0 0 0 1 -7.03535 0 4
61 1 18.6964 2.7176 2.67734 12.066 2.12319 0.337482 1 -7.31562 0.093494 4
62 1 20.5111 0.929596 2.64099 1.12234 4.94099 -4.39955 1 -7.35907 0.0280273 4
63 1 20.5029 2.67429 0.891429 0 0 0 1 -6.9913 0 4
64 1 17.8286 3.56572 0 0 0 0 1 -3.33994 0 2
65 1 19.6163 3.57351 1.79653 7.01868 -0.821908 2.45005 1 -7.34496 0.0348186 4
66 1 19.6301 1.83467 3.5618 -3.05067 -1.81478 2.49693 1 -7.36094 0.0117232 4
67 1 17.8547 3.56966 3.58099 5.18273 -2.6464 3.28723 1 -7.35643 0.0278038 4
68 1 19.6238 0.0193087 1.76133 -2.20862 2.27498 -2.1201 1 -7.37496 0.00905528 4
349 1 17.8429 0.0524333 3.5491 -2.29843 1.01131 -3.94928 1 -7.24878 0.0136326 4
69 1 1.78286 5.34857 0 0 0 0 1 -3.33914 0 2
70 1 0.891429 4.45714 0.891429 0 0 0 1 -7.0178 0 4
71 1 0.861717 6.19644 2.62739 1.10668 -10.776 -2.64992 1 -7.2845 0.0774101 4
72 1 2.66246 4.42277 2.68053 2.97018 -12.5629 7.79896 1 -7.41207 0.141584 4
73 1 2.67429 6.24 0.891429 0 0 0 1 -7.02153 0 4
74 1 3.53034 5.35464 1.80787 -1.03813 -1.17218 1.34641 1 -7.30305 0.00265437 4
75 1 0 7.13143 0 0 0 0 1 -3.34619 0 2
76 1 1.78946 7.13701 1.77324 -3.14044 -3.35791 -8.71964 1 -7.32745 0.0604812 4
77 1 0.891429 8.02286 0.891429 0 0 0 1 -7.03359 0 4
78 1 2.64877 8.00304 2.68421 2.10186 6.23434 -4.10113 1 -7.35334 0.0374103 4
79 1 3.56572 7.13143 0 0 0 0 1 -3.33718 0 2
80 1 1.7835 5.31768 3.5931 -1.77657 -9.83026 0.542437 1 -7.24996 0.0622952 4
81 1 3.58356 7.12346 3.55608 -1.08795 1.74086 3.0458 1 -7.37635 0.00839724 4
128 1 0.000421354 5.3296 1.77345 -3.28767 -3.83649 -1.74498 1 -7.41298 0.0177842 4
82 1 0.0501966 7.11167 3.55921 -2.61736 -5.92195 -0.46551 1 -7.23693 0.026227 4
83 1 5.34857 5.34857 0 0 0 0 1 -3.34642 0 2
84 1 4.45714 4.45714 0.891429 0 0 0 1 -6.97308 0 4
85 1 4.48232 6.24523 2.68433 1.72115 -11.1293 -3.76066 1 -7.34656 0.0877415 4
86 1 6.25986 4.46731 2.66883 0.568142 3.94266 -5.5323 1 -7.36979 0.0289264 4
87 1 6.24 6.24 0.891429 0 0 0 1 -7.01249 0 4
88 1 7.13566 5.35881 1.78891 4.09655 7.7915 -7.23028 1 -7.38673 0.0807699 4
89 1 8.02286 4.45714 0.891429 0 0 0 1 -6.99815 0 4
90 1 8.01591 6.26648 2.62461 2.27251 0.663563 8.20495 1 -7.36891 0.0453909 4
91 1 5.36468 7.13545 1.77641 -4.99328 -2.2943 -0.750284 1 -7.35807 0.0191456 4
92 1 4.45714 8.02286 0.891429 0 0 0 1 -7.0167 0 4
93 1 6.27286 8.01871 2.72131 -15.8864 2.01 1.62705 1 -7.27416 0.161249 4
94 1 7.13143 7.13143 0 0 0 0 1 -3.34353 0 2
95 1 8.02286 8.02286 0.891429 0 0 0 1 -7.02432 0 4
96 1 5.365 5.34169 3.61428 4.87596 6.88208 -5.94571 1 -7.33006 0.0662819 4
97 1 7.17407 7.13636 3.55001 6.47366 -2.2801 -1.06334 1 -7.33794 0.0300245 4
98 1 8.91429 5.34857 0 0 0 0 1 -3.33502 0 2
99 1 9.84432 4.43782 2.66062 -3.28626 -3.01994 0.275145 1 -7.33966 0.0124456 4
100 1 9.80572 6.24 0.891429 0 0 0 1 -7.0142 0 4
101 1 10.7387 5.33718 1.79429 0.237586 -6.16291 -0.0943658 1 -7.36943 0.0236813 4
102 1 12.48 5.34857 0 0 0 0 1 -3.335 0 2
103 1 11.5886 4.45714 0.891429 0 0 0 1 -7.00644 0 4
104 1 11.6099 6.23555 2.66998 4.53148 1.87141 0.604855 1 -7.40323 0.0151886 4
105 1 8.94762 7.14101 1.73155 7.70639 -0.659378 -2.59037 1 -7.34114 0.041412 4
106 1 9.77945 7.99833 2.6732 6.56969 4.52275 -3.26695 1 -7.36655 0.0462395 4
107 1 10.6971 7.13143 0 0 0 0 1 -3.30279 0 2
108 1 12.4896 7.11903 1.78733 2.34815 -9.85296 8.92683 1 -7.36303 0.113458 4
109 1 11.5886 8.02286 0.891429 0 0 0 1 -7.02293 0 4
110 1 8.89241 5.34586 3.50249 -1.08853 -2.85064 -4.49294 1 -7.19652 0.0183601 4
111 1 12.494 5.34298 3.57196 -7.50274 6.50572 4.75314 1 -7.37663 0.075443 4
112 1 10.697 7.09724 3.55553 1.57178 7.53992 3.89714 1 -7.37264 0.0463761 4
113 1 13.3696 4.44124 2.64866 2.96692 -12.7485 0.628568 1 -7.38591 0.106884 4
114 1 13.3714 6.24 0.891429 0 0 0 1 -6.97077 0 4
115 1 14.2773 5.33157 1.82466 -10.0558 7.00421 -4.2908 1 -7.30266 0.104934 4
116 1 16.0457 5.34857 0 0 0 0 1 -3.34543 0 2
117 1 15.1543 4.45714 0.891429 0 0 0 1 -6.99653 0 4
118 1 15.1923 6.23049 2.64218 4.67203 8.36392 -3.89081 1 -7.26716 0.0665507 4
119 1 16.9512 4.46061 2.63301 6.21641 -0.768399 -3.18358 1 -7.30459 0.0307288 4
120 1 16.9371 6.24 0.891429 0 0 0 1 -7.00849 0 4
121 1 13.3853 7.98266 2.68025 0.849103 -0.319347 7.0303 1 -7.39382 0.0312757 4
122 1 14.2629 7.13143 0 0 0 0 1 -3.34746 0 2
123 1 16.0771 7.14851 1.75193 2.7212 -4.50528 -4.58589 1 -7.30846 0.0303326 4
124 1 15.1543 8.02286 0.891429 0 0 0 1 -7.02366 0 4
125 1 16.9626 8.0652 2.72748 -2.82601 2.24634 6.72258 1 -7.30973 0.036241 4
126 1 16.0836 5.30802 3.56839 -10.4174 1.51577 4.06043 1 -7.28608 0.0792387 4
127 1 14.2646 7.11192 3.54328 -3.54238 0.318427 3.57114 1 -7.34811 0.0158114 4
129 1 17.8252 5.33588 1.78594 0.150996 -4.12132 -2.20827 1 -7.38377 0.0136215 4
130 1 19.6114 5.34857 0 0 0 0 1 -3.3174 0 2
131 1 18.72 4.45714 0.891429 0 0 0 1 -7.003 0 4
132 1 18.6952 6.2498 2.67005 1.06384 -0.404448 -6.4283 1 -7.41766 0.0265268 4
133 1 20.516 4.47579 2.67431 -3.01135 -3.06168 -8.09238 1 -7.36911 0.0522395 4
134 1 20.5029 6.24 0.891429 0 0 0 1 -6.99052 0 4
135 1 17.8286 7.13143 0 0 0 0 1 -3.32113 0 2
136 1 19.5607 7.11711 1.7808 -1.79438 -4.98645 5.44984 1 -7.31658 0.0359671 4
137 1 18.72 8.02286 0.891429 0 0 0 1 -7.01461 0 4
138 1 20.5192 8.03514 2.66856 -4.7218 3.4517 -3.71986 1 -7.27144 0.0299057 4
139 1 19.606 5.35718 3.57425 0.00771603 -3.10408 4.9224 1 -7.26643 0.0210787 4
140 1 17.8275 7.12519 3.56658 7.12776 2.64967 5.8628 1 -7.3358 0.0573865 4
141 1 1.78286 8.91429 0 0 0 0 1 -3.3388 0 2
142 1 0.897496 9.82712 2.63016 0.904273 0.660663 -6.13185 1 -7.31514 0.0241836 4
143 1 2.67429 9.80572 0.891429 0 0 0 1 -7.02329 0 4
144 1 3.54667 8.92217 1.76241 3.34891 -4.36435 3.02049 1 -7.3043 0.024515 4
145 1 0 10.6971 0 0 0 0 1 -3.32869 0 2
146 1 1.80879 10.6955 1.79965 -2.24366 2.00802 6.44169 1 -7.37924 0.0314708 4
147 1 1.78286 12.48 0 0 0 0 1 -3.32052 0 2
148 1 0.891429 11.5886 0.891429 0 0 0 1 -6.99517 0 4
149 1 2.71834 11.5787 2.66394 -7.52289 -1.60068 -3.1729 1 -7.32739 0.0430864 4
150 1 3.56572 10.6971 0 0 0 0 1 -3.3527 0 2
151 1 3.63089 12.4755 1.78149 3.90616 -6.27884 -3.34391 1 -7.35718 0.0409953 4
152 1 1.74741 8.89864 3.58395 4.34355 3.90191 3.55785 1 -7.27789 0.0290982 4
153 1 1.835 12.4817 3.54021 9.18378 0.0538227 0.585745 1 -7.3674 0.0527119 4
154 1 3.58911 10.6737 3.59709 -0.916488 -1.22726 -14.2287 1 -7.31823 0.127474 4
205 1 0.021523 8.88733 1.77539 7.79864 -5.71945 -1.6322 1 -7.36518 0.0598743 4
204 1 0.0274687 12.5029 1.75508 12.8013 -1.76385 -1.01066 1 -7.35526 0.104571 4
155 1 5.34857 8.91429 0 0 0 0 1 -3.33664 0 2
156 1 4.49062 9.81437 2.66339 1.11299 6.19296 -4.2616 1 -7.31388 0.0359469 4
157 1 6.24 9.80572 0.891429 0 0 0 1 -6.98143 0 4
158 1 7.18468 8.93412 1.78426 -5.49956 -4.43691 -4.85713 1 -7.2988 0.0457627 4
159 1 8.0078 9.83628 2.69446 -9.0027 -1.85262 -2.01062 1 -7.40348 0.0550992 4
160 1 5.34028 10.7273 1.76093 -0.0709067 3.70811 2.06344 1 -7.37115 0.0112117 4
161 1 5.34857 12.48 0 0 0 0 1 -3.31735 0 2
162 1 4.45714 11.5886 0.891429 0 0 0 1 -7.05068 0 4
163 1 6.2469 11.5768 2.6765 -2.06407 0.936372 2.07591 1 -7.33882 0.0058798 4
164 1 7.13143 10.6971 0 0 0 0 1 -3.31742 0 2
165 1 7.15157 12.4903 1.75886 -4.31806 -4.65123 1.96481 1 -7.30096 0.0274739 4
166 1 8.02286 11.5886 0.891429 0 0 0 1 -7.02922 0 4
167 1 5.35171 8.9107 3.57576 -6.98911 -7.05206 1.92747 1 -7.325 0.0636707 4
168 1 5.41132 12.4914 3.55236 -0.407438 2.71259 -0.919966 1 -7.32427 0.00521002 4
169 1 7.11608 10.6698 3.54955 1.08543 -2.03156 -6.02996 1 -7.34368 0.0259339 4
170 1 8.91429 8.91429 0 0 0 0 1 -3.29139 0 2
171 1 9.80572 9.80572 0.891429 0 0 0 1 -6.98459 0 4
172 1 10.6754 8.89676 1.76515 -5.39479 8.25003 -6.11539 1 -7.32807 0.0837565 4
173 1 12.48 8.91429 0 0 0 0 1 -3.33559 0 2
174 1 11.5623 9.78777 2.64782 5.09655 3.00995 4.02017 1 -7.2873 0.031866 4
175 1 8.86916 10.7388 1.78173 -4.07851 -1.94089 0.444696 1 -7.35181 0.0128214 4
176 1 8.91429 12.48 0 0 0 0 1 -3.34268 0 2
177 1 9.76347 11.6011 2.66639 4.78776 -0.16073 -6.83958 1 -7.39286 0.0434007 4
178 1 10.6971 10.6971 0 0 0 0 1 -3.32835 0 2
179 1 10.677 12.4686 1.8004 2.21312 -5.14775 3.63169 1 -7.33519 0.0277517 4
180 1 12.4783 10.685 1.78874 7.12173 -0.313108 -1.063 1 -7.32998 0.0323332 4
181 1 12.48 12.48 0 0 0 0 1 -3.3486 0 2
182 1 11.5886 11.5886 0.891429 0 0 0 1 -6.99149 0 4
183 1 8.91927 8.93739 3.52119 -0.773473 0.699416 -1.05298 1 -7.37048 0.00136698 4
184 1 12.482 8.84528 3.51391 7.61283 0.948653 6.83134 1 -7.28214 0.0656799 4
185 1 8.91961 12.4843 3.59038 2.54507 3.14298 -8.11178 1 -7.33804 0.0511365 4
186 1 10.6715 10.7377 3.57446 3.10794 2.70339 -4.06143 1 -7.2613 0.0208281 4
187 1 12.5034 12.4441 3.58156 -1.05319 12.0092 2.35007 1 -7.33641 0.093895 4
188 1 13.3714 9.80572 0.891429 0 0 0 1 -7.00868 0 4
189 1 14.2834 8.89038 1.79294 3.1619 3.33267 1.1672 1 -7.34604 0.0139838 4
190 1 16.0457 8.91429 0 0 0 0 1 -3.34562 0 2
191 1 15.1826 9.76366 2.71571 -3.6387 -4.32074 1.38624 1 -7.24227 0.021057 4
192 1 16.9371 9.80572 0.891429 0 0 0 1 -6.97952 0 4
193 1 13.3932 11.5842 2.70342 -1.04592 4.70232 2.51848 1 -7.38976 0.0183917 4
194 1 14.2629 10.6971 0 0 0 0 1 -3.36176 0 2
195 1 14.291 12.4709 1.80684 0.224403 -2.57378 -6.98267 1 -7.36238 0.0345025 4
196 1 16.0869 10.7554 1.77152 -5.5796 0.720846 -2.89725 1 -7.25147 0.0249254 4
197 1 16.0457 12.48 0 0 0 0 1 -3.31869 0 2
198 1 15.1543 11.5886 0.891429 0 0 0 1 -7.02778 0 4
199 1 16.9349 11.6329 2.67787 -0.2718 -6.14582 6.21919 1 -7.34368 0.0476301 4
200 1 16.0772 8.89225 3.57635 -1.67734 -9.81901 -2.83571 1 -7.38458 0.0667662 4
201 1 14.2445 10.688 3.55356 3.66462 0.385402 -7.60096 1 -7.26571 0.0444117 4
202 1 16.0497 12.4901 3.58784 7.67667 -4.52491 2.84108 1 -7.37235 0.0544485 4
203 1 21.4294 10.747 3.52987 8.58271 5.79606 0.965349 1 -7.34693 0.0673397 4
206 1 17.8383 8.92304 1.81411 6.59305 3.66895 -0.600634 1 -7.36227 0.035659 4
207 1 19.6114 8.91429 0 0 0 0 1 -3.35506 0 2
208 1 18.7243 9.83706 2.67231 -6.34726 -3.59066 11.004 1 -7.36098 0.10847 4
209 1 20.5029 9.80572 0.891429 0 0 0 1 -6.98841 0 4
210 1 17.8286 10.6971 0 0 0 0 1 -3.32513 0 2
211 1 17.8143 12.4827 1.82208 -1.76216 3.18333 -0.558373 1 -7.33304 0.00843424 4
212 1 19.6535 10.7263 1.77782 8.01568 -0.428219 -1.69602 1 -7.34189 0.0418961 4
213 1 19.6114 12.48 0 0 0 0 1 -3.31831 0 2
214 1 18.72 11.5886 0.891429 0 0 0 1 -6.97536 0 4
215 1 20.5513 11.6272 2.66759 0.0515725 7.36937 7.28346 1 -7.3766 0.0668231 4
216 1 19.5931 8.96613 3.5629 1.51458 -0.189039 4.01535 1 -7.32855 0.0114855 4
217 1 17.8718 10.7021 3.57281 1.98996 -1.92147 1.54856 1 -7.32214 0.00625542 4
218 1 19.6269 12.4989 3.53957 -4.14199 -1.14184 7.42979 1 -7.40499 0.0458489 4
219 1 0.925364 13.3828 2.65794 2.45606 2.18743 0.661296 1 -7.34401 0.007005 4
220 1 2.67429 13.3714 0.891429 0 0 0 1 -7.00132 0 4
221 1 0 14.2629 0 0 0 0 1 -3.317 0 2
222 1 1.78312 14.256 1.76239 4.47322 -4.05146 -1.2974 1 -7.35579 0.0237189 4
223 1 1.78286 16.0457 0 0 0 0 1 -3.32965 0 2
224 1 0.891429 15.1543 0.891429 0 0 0 1 -7.03221 0 4
225 1 0.878504 16.9511 2.64955 -2.12914 -3.9623 2.66948 1 -7.32396 0.017029 4
226 1 2.66071 15.215 2.64497 1.57318 -1.83126 6.25445 1 -7.28608 0.0279759 4
227 1 2.67429 16.9371 0.891429 0 0 0 1 -7.005 0 4
228 1 3.56572 14.2629 0 0 0 0 1 -3.3181 0 2
229 1 3.55607 16.0703 1.79193 -5.56755 4.5093 -7.88439 1 -7.32887 0.0706423 4
230 1 1.76363 16.0807 3.54463 0.788984 -3.53449 -0.471792 1 -7.32734 0.00830172 4
231 1 3.58495 14.2713 3.5495 0.778679 -10.7855 -3.75199 1 -7.31205 0.0815442 4
233 1 0.00165081 16.0259 1.74474 5.61077 3.34795 0.886365 1 -7.34175 0.0270601 4
232 1 0.0148258 14.2702 3.5862 -2.20872 -6.40847 -1.78575 1 -7.29643 0.0305834 4
234 1 4.45155 13.3415 2.66101 1.64148 -2.37437 1.04965 1 -7.35922 0.00587188 4
235 1 6.24 13.3714 0.891429 0 0 0 1 -6.98147 0 4
236 1 8.06852 13.3981 2.67846 -3.95779 3.53794 1.68665 1 -7.30681 0.0193113 4
237 1 5.311 14.2746 1.78528 -0.278275 1.65244 -4.76012 1 -7.31457 0.0158512 4
238 1 5.34857 16.0457 0 0 0 0 1 -3.35398 0 2
239 1 4.45714 15.1543 0.891429 0 0 0 1 -7.04064 0 4
240 1 4.42359 16.9881 2.72601 1.30839 3.71888 -0.972062 1 -7.33964 0.0102619 4
241 1 6.25244 15.1547 2.65785 -4.03911 -1.16574 5.98188 1 -7.3323 0.0332725 4
242 1 6.24 16.9371 0.891429 0 0 0 1 -6.99369 0 4
243 1 7.13143 14.2629 0 0 0 0 1 -3.3429 0 2
244 1 7.16505 16.0617 1.78069 -3.33229 1.47376 -4.0419 1 -7.36537 0.018432 4
245 1 8.02286 15.1543 0.891429 0 0 0 1 -6.98358 0 4
246 1 8.01266 16.935 2.71324 6.09141 -0.841159 6.1017 1 -7.33503 0.0467091 4
247 1 5.32385 16.0371 3.58821 7.59535 5.38936 -1.27285 1 -7.25355 0.0549943 4
248 1 7.13024 14.3092 3.5318 -0.760745 1.12297 -3.53534 1 -7.37016 0.00892462 4
249 1 9.80572 13.3714 0.891429 0 0 0 1 -7.00356 0 4
250 1 11.6174 13.3763 2.65013 5.02932 -7.43953 4.67932 1 -7.32267 0.0638216 4
251 1 8.9723 14.2566 1.79569 0.231711 -4.55532 -3.62457 1 -7.32971 0.0211265 4
252 1 8.91429 16.0457 0 0 0 0 1 -3.31552 0 2
253 1 9.86238 15.1886 2.67681 -0.728163 0.0624607 5.1382 1 -7.37168 0.0167652 4
254 1 9.80572 16.9371 0.891429 0 0 0 1 -7.04854 0 4
255 1 10.6971 14.2629 0 0 0 0 1 -3.34508 0 2
256 1 10.6919 16.06 1.78142 -9.40072 -0.691429 -2.14305 1 -7.27747 0.0581622 4
257 1 12.4695 14.3012 1.77241 -0.125521 1.38086 5.47583 1 -7.30938 0.0198599 4
258 1 12.48 16.0457 0 0 0 0 1 -3.32208 0 2
259 1 11.5886 15.1543 0.891429 0 0 0 1 -7.01426 0 4
260 1 11.6679 16.9485 2.69183 2.17664 -0.737717 4.68714 1 -7.27384 0.0169619 4
261 1 8.97583 16.0957 3.60956 -3.79089 -3.23284 -7.78955 1 -7.28032 0.053217 4
262 1 10.7585 14.3049 3.5128 -0.221696 1.19033 -3.93915 1 -7.23009 0.0105706 4
263 1 12.4585 16.0505 3.59604 -3.6302 10.4689 0.38975 1 -7.31125 0.0765135 4
264 1 13.3714 13.3714 0.891429 0 0 0 1 -6.96198 0 4
265 1 15.1554 13.389 2.65751 -2.61809 7.92488 10.0121 1 -7.32215 0.105751 4
266 1 16.9371 13.3714 0.891429 0 0 0 1 -6.99976 0 4
267 1 13.3727 15.1892 2.69705 4.79176 3.37229 2.44649 1 -7.33146 0.0250954 4
268 1 13.3714 16.9371 0.891429 0 0 0 1 -7.01398 0 4
269 1 14.2629 14.2629 0 0 0 0 1 -3.31369 0 2
270 1 14.2694 16.0294 1.744 -6.58993 -0.471916 4.91282 1 -7.36609 0.0421916 4
271 1 16.0588 14.2561 1.75495 -3.94366 -3.38017 1.86736 1 -7.38083 0.0189622 4
272 1 16.0457 16.0457 0 0 0 0 1 -3.33381 0 2
273 1 15.1543 15.1543 0.891429 0 0 0 1 -7.03183 0 4
274 1 15.1959 16.9373 2.596 1.97762 -2.88938 -0.266863 1 -7.26669 0.00767494 4
275 1 16.9831 15.1243 2.63713 -0.186284 4.97556 2.20218 1 -7.27519 0.0184491 4
276 1 16.9371 16.9371 0.891429 0 0 0 1 -7.04431 0 4
277 1 14.2397 14.2633 3.58162 2.31697 1.22859 -3.1474 1 -7.34851 0.0104467 4
278 1 16.0551 16.0439 3.54586 -1.98966 1.70541 -5.15224 1 -7.29781 0.0207969 4
279 1 18.7271 13.3621 2.67853 -5.26206 -10.4359 -2.15125 1 -7.38127 0.0879026 4
280 1 20.5029 13.3714 0.891429 0 0 0 1 -7.03064 0 4
281 1 17.8286 14.2629 0 0 0 0 1 -3.32143 0 2
282 1 17.7939 16.059 1.77846 6.4824 6.64754 3.22445 1 -7.32836 0.0601316 4
283 1 19.5772 14.2452 1.77458 -2.42293 -12.623 -0.446455 1 -7.37485 0.102956 4
284 1 19.6114 16.0457 0 0 0 0 1 -3.32766 0 2
285 1 18.72 15.1543 0.891429 0 0 0 1 -6.98309 0 4
286 1 18.7028 16.8946 2.70224 0.593461 2.00478 6.88301 1 -7.30094 0.0322088 4
287 1 20.459 15.1482 2.6773 0.650239 -0.570376 5.70763 1 -7.29488 0.0207425 4
288 1 20.5029 16.9371 0.891429 0 0 0 1 -7.01261 0 4
289 1 17.8557 14.2661 3.56492 0.937408 0.535486 4.0559 1 -7.4082 0.0109645 4
290 1 19.6288 15.9955 3.55908 0.677166 -8.19299 5.39286 1 -7.33834 0.0601678 4
293 1 0 17.8286 0 0 0 0 1 -3.35216 0 2
294 1 1.75191 17.8243 1.77787 -1.0328 5.16645 -4.70753 1 -7.34383 0.0310713 4
295 1 1.78286 19.6114 0 0 0 0 1 -3.34004 0 2
296 1 0.891429 18.72 0.891429 0 0 0 1 -6.99882 0 4
297 1 0.912869 20.52 2.68029 5.36865 -7.07417 -6.29606 1 -7.37381 0.0737616 4
298 1 2.62718 18.7218 2.67315 5.25409 3.19305 6.36902 1 -7.29242 0.0487767 4
299 1 2.67429 20.5029 0.891429 0 0 0 1 -7.04057 0 4
300 1 3.56572 17.8286 0 0 0 0 1 -3.33512 0 2
301 1 3.51312 19.6198 1.76958 0.232294 7.76294 9.44302 1 -7.32484 0.0930451 4
302 1 1.74922 19.6438 3.61173 -4.24701 4.16576 11.0558 1 -7.31642 0.0981077 4
303 1 3.56531 17.8362 3.57906 1.83436 0.240851 6.4603 1 -7.33066 0.0281078 4
305 1 0.0496674 19.6049 1.8286 -1.55714 2.37342 -3.80003 1 -7.2876 0.0140034 4
27 1 5.37817 21.4079 1.77938 4.90631 4.13862 -2.383 1 -7.30352 0.0291785 4
307 1 5.35396 17.85 1.82419 5.17347 -7.90963 2.7723 1 -7.35189 0.0603832 4
308 1 5.34857 19.6114 0 0 0 0 1 -3.34367 0 2
309 1 4.45714 18.72 0.891429 0 0 0 1 -6.97428 0 4
310 1 4.44245 20.4695 2.69149 1.12875 1.35676 -4.74634 1 -7.25955 0.0159606 4
311 1 6.23546 18.6991 2.66509 -2.02007 -4.84497 0.210847 1 -7.40019 0.0171783 4
312 1 6.24 20.5029 0.891429 0 0 0 1 -7.0051 0 4
313 1 7.13143 17.8286 0 0 0 0 1 -3.32243 0 2
314 1 7.14877 19.5964 1.77606 -1.24396 -5.62548 -4.64204 1 -7.36621 0.0340729 4
315 1 8.02286 18.72 0.891429 0 0 0 1 -7.02757 0 4
316 1 8.0452 20.4817 2.65924 -0.367486 0.12315 9.32984 1 -7.37937 0.0542731 4
317 1 5.37491 19.5842 3.5584 10.4602 -3.23057 -2.984 1 -7.38113 0.0801414 4
318 1 7.12973 17.8496 3.5474 -4.16294 -6.78743 -1.7696 1 -7.35072 0.0414105 4
320 1 8.90516 21.3593 1.79117 -4.66959 0.306319 4.10865 1 -7.32975 0.0241376 4
321 1 12.4823 21.4113 1.78947 0.878275 2.18789 -3.43879 1 -7.29827 0.0108199 4
322 1 8.91303 17.8206 1.78173 -9.21787 -2.19103 -3.9482 1 -7.28324 0.0655776 4
323 1 8.91429 19.6114 0 0 0 0 1 -3.32658 0 2
324 1 9.82826 18.7011 2.69117 5.9404 -1.01475 -3.71628 1 -7.33119 0.0312015 4
325 1 9.80572 20.5029 0.891429 0 0 0 1 -7.03656 0 4
326 1 10.6971 17.8286 0 0 0 0 1 -3.32595 0 2
327 1 10.6672 19.622 1.75762 -1.35799 -0.101198 -3.15566 1 -7.36165 0.00735245 4
328 1 12.496 17.8215 1.77561 -2.54215 4.19784 -6.13694 1 -7.41885 0.0384325 4
329 1 12.48 19.6114 0 0 0 0 1 -3.33559 0 2
330 1 11.5886 18.72 0.891429 0 0 0 1 -7.02344 0 4
331 1 11.5724 20.4807 2.68822 -10.7647 1.91433 2.364 1 -7.27724 0.077885 4
332 1 8.94206 19.5636 3.54564 -7.07471 -5.95063 1.4423 1 -7.34781 0.0544882 4
333 1 10.7192 17.8058 3.59564 4.13431 0.910498 2.1583 1 -7.34954 0.0140543 4
334 1 12.5218 19.6104 3.58059 2.1842 -0.529255 -5.3286 1 -7.34014 0.0208169 4
335 1 16.0508 21.3831 1.76161 0.0290455 0.103287 2.72137 1 -7.38515 0.00461675 4
337 1 13.3973 18.6903 2.6772 3.71574 7.3962 5.09973 1 -7.30221 0.0588303 4
338 1 13.3714 20.5029 0.891429 0 0 0 1 -7.01286 0 4
339 1 14.2629 17.8286 0 0 0 0 1 -3.33593 0 2
340 1 14.2768 19.6286 1.76578 -3.73433 -2.25892 -3.88411 1 -7.35536 0.021246 4
341 1 16.0888 17.8329 1.76297 -4.58991 -1.99561 0.829426 1 -7.36961 0.0160198 4
342 1 16.0457 19.6114 0 0 0 0 1 -3.31026 0 2
343 1 15.1543 18.72 0.891429 0 0 0 1 -7.00393 0 4
344 1 15.1647 20.5122 2.65466 -6.12942 1.18723 0.673448 1 -7.36943 0.024544 4
345 1 16.9828 18.6941 2.68115 5.71744 -0.233646 3.75773 1 -7.39219 0.0291695 4
346 1 16.9371 20.5029 0.891429 0 0 0 1 -7.05462 0 4
347 1 14.2669 17.8033 3.57439 1.11556 -7.553 -5.19029 1 -7.30328 0.0530503 4
348 1 16.0398 19.5931 3.56966 5.30754 1.22189 -1.70298 1 -7.31296 0.0202681 4
304 1 21.4237 17.8488 3.59617 0.0838868 1.428 0.0497466 1 -7.32171 0.00127517 4
351 1 17.8286 17.8286 0 0 0 0 1 -3.32042 0 2
352 1 17.8344 19.6081 1.78651 -1.04118 -1.24197 6.14272 1 -7.36794 0.0251209 4
353 1 19.6105 17.7805 1.77954 -1.40185 5.43227 2.60775 1 -7.34454 0.0238234 4
354 1 19.6114 19.6114 0 0 0 0 1 -3.35198 0 2
355 1 18.72 18.72 0.891429 0 0 0 1 -6.98872 0 4
356 1 18.7572 20.4954 2.66066 4.78839 -1.7295 11.8209 1 -7.31039 0.103107 4
357 1 20.5081 18.6813 2.70578 -0.870666 -0.162911 7.36518 1 -7.27361 0.0342524 4
358 1 20.5029 20.5029 0.891429 0 0 0 1 -6.95309 0 4
359 1 17.841 17.8323 3.58459 5.41476 -2.56084 -3.29026 1 -7.36545 0.0290694 4
360 1 19.6276 19.5888 3.5965 -6.79526 -4.02698 -3.24813 1 -7.33571 0.0454013 4
361 1 0.913953 0.908149 4.48375 4.67579 0.545778 -10.1773 1 -7.30475 0.0782627 4
362 1 0.891983 2.72718 6.29706 4.52715 -3.23903 -1.17968 1 -7.28449 0.0201529 4
363 1 2.71365 0.892658 6.30154 -2.90845 6.13026 -2.981 1 -7.35726 0.0341871 4
364 1 2.73675 2.65281 4.50598 4.04013 13.032 3.70051 1 -7.30016 0.124392 4
365 1 3.60731 1.78476 5.40399 3.07278 -1.36185 -3.78784 1 -7.3874 0.0159617 4
366 1 1.78832 3.59726 5.36902 -6.35217 -4.3084 -2.44243 1 -7.24526 0.0403816 4
367 1 1.82623 1.80868 7.17288 -5.72888 0.435861 -4.581 1 -7.3594 0.0336082 4
368 1 0.949112 0.92141 8.06532 -1.80934 -2.76068 3.59755 1 -7.32786 0.014837 4
369 1 2.70215 2.6401 8.09535 0.913869 2.03193 -6.31473 1 -7.33577 0.0279094 4
370 1 3.58121 3.54099 7.23056 -3.60588 -9.1003 -3.35472 1 -7.37161 0.0666445 4
411 1 0.0231683 1.79397 5.39295 1.52204 2.69421 -4.11844 1 -7.29166 0.0165173 4
371 1 -0.0461073 3.57368 7.20038 -7.15414 -2.7965 3.36993 1 -7.29982 0.043793 4
651 1 3.56642 -0.0200248 7.18663 2.26236 -4.1762 5.57314 1 -7.3471 0.0333737 4
710 1 0.007611 0.0185338 7.19039 -5.82499 -2.87226 -9.4132 1 -7.34721 0.0814063 4
652 1 1.81269 0.00963471 5.41289 -7.20587 0.256115 -5.84792 1 -7.32611 0.0536459 4
372 1 4.47819 0.851331 4.50351 -6.97772 4.71487 1.71791 1 -7.24625 0.0459785 4
373 1 4.4882 2.66446 6.32853 -9.01304 2.14004 6.95252 1 -7.3696 0.0834999 4
374 1 6.24365 0.85838 6.22838 3.6511 0.620361 -1.65328 1 -7.31663 0.0102381 4
375 1 6.25526 2.66268 4.46047 -1.53036 -4.05012 2.52803 1 -7.29598 0.0156456 4
376 1 7.1969 1.78801 5.38943 -0.0582668 -0.527285 5.07508 1 -7.33314 0.0162066 4
377 1 8.0419 0.877725 4.50946 -2.84719 -3.22728 1.55777 1 -7.28341 0.0130389 4
378 1 8.00593 2.69187 6.24818 -8.1951 0.986832 3.12821 1 -7.36903 0.0484989 4
379 1 5.36247 3.52739 5.3563 4.17703 0.959654 4.9404 1 -7.36473 0.0266249 4
380 1 5.37627 1.75211 7.15475 -5.87562 -2.05077 1.48186 1 -7.34529 0.0254724 4
381 1 4.51032 0.872771 8.08835 -0.36036 -1.41414 -5.28419 1 -7.3514 0.0187053 4
382 1 6.24087 2.64289 8.06749 11.8025 -1.48055 -0.89113 1 -7.30184 0.0885619 4
383 1 7.98937 0.907565 8.04983 0.571913 -3.90194 1.10909 1 -7.36962 0.0104457 4
384 1 7.13116 3.57671 7.14795 1.87328 -4.64485 6.71506 1 -7.30969 0.0436793 4
665 1 7.1111 -0.023521 7.17152 -8.44146 -2.48464 -2.35315 1 -7.27575 0.051642 4
386 1 9.7977 0.876101 6.25507 2.54547 0.24453 1.35947 1 -7.29461 0.00522052 4
387 1 9.80668 2.64331 4.43489 1.00732 2.90379 4.9053 1 -7.35433 0.0208567 4
388 1 10.7304 1.7788 5.33112 2.10616 1.86431 -4.48069 1 -7.32039 0.0174206 4
389 1 11.6131 0.880125 4.44047 -0.105598 3.99793 -1.68621 1 -7.36025 0.0117252 4
390 1 11.6146 2.67663 6.24497 2.68079 -3.66219 -0.258315 1 -7.34909 0.0128624 4
391 1 8.88205 3.52177 5.36152 -1.70707 2.05609 -6.92233 1 -7.30621 0.0342709 4
392 1 12.5045 3.54406 5.38494 -0.727344 -1.00393 -0.627857 1 -7.31349 0.00120197 4
393 1 8.88341 1.81755 7.17417 -6.48601 -8.64481 -5.45635 1 -7.33088 0.0912308 4
394 1 9.8178 2.66098 8.0382 -2.05326 -5.05458 -7.30668 1 -7.34784 0.0517561 4
395 1 12.4841 1.77122 7.15236 2.25782 -2.83632 5.1686 1 -7.30106 0.024808 4
396 1 11.5874 0.910635 8.06256 8.32218 6.78983 4.1346 1 -7.39011 0.0824438 4
397 1 10.7186 3.55392 7.18127 -7.04991 1.52079 -9.99535 1 -7.36788 0.0945596 4
398 1 13.3807 0.90522 6.21969 3.63817 0.695798 -0.350903 1 -7.33353 0.00861659 4
399 1 13.3832 2.62463 4.47381 -2.89275 6.83486 -2.1757 1 -7.28394 0.0372316 4
400 1 14.3024 1.79754 5.37102 7.40733 -1.43943 5.10848 1 -7.38104 0.0516844 4
401 1 15.1937 0.908884 4.46887 -9.73895 -6.62541 -3.58606 1 -7.34424 0.0943617 4
402 1 15.2302 2.6428 6.27841 6.20702 0.831002 -2.84042 1 -7.33433 0.0294318 4
403 1 16.9972 0.857987 6.26929 9.6994 -4.69481 -1.71267 1 -7.26891 0.0741016 4
404 1 16.9553 2.67756 4.45231 -0.43499 -2.23917 0.879576 1 -7.36472 0.0037201 4
405 1 16.0879 3.5555 5.37766 3.18033 -0.55049 0.0159725 1 -7.2732 0.00648432 4
406 1 13.3894 2.70297 8.05564 -0.906129 2.15237 0.231178 1 -7.31344 0.00342782 4
407 1 16.0752 1.78262 7.17783 4.87427 3.25243 2.8406 1 -7.35512 0.0263945 4
408 1 15.1803 0.862524 8.08819 -0.477114 -2.0273 1.89568 1 -7.29433 0.00493657 4
409 1 16.9448 2.67722 8.05433 -0.469676 -5.83538 -1.03291 1 -7.32354 0.021996 4
410 1 14.2862 3.55566 7.21575 10.4393 -3.96823 -8.63936 1 -7.30288 0.124089 4
412 1 17.8468 1.76491 5.37402 6.57002 -7.77075 7.18008 1 -7.34125 0.0965404 4
413 1 18.7772 0.913568 4.49243 -4.57413 2.22901 -1.09002 1 -7.32041 0.0168549 4
414 1 18.7455 2.64223 6.2744 -1.93234 4.90329 -7.52405 1 -7.35001 0.052525 4
415 1 20.5088 0.887063 6.29562 -3.5415 -4.32725 -2.67847 1 -7.30885 0.023927 4
416 1 20.52 2.69542 4.45128 -7.16176 -1.15406 3.55558 1 -7.29587 0.0406225 4
417 1 19.6521 3.5676 5.42425 -0.820942 -2.96041 -4.0728 1 -7.28831 0.016199 4
418 1 19.6007 1.80736 7.1699 -4.34276 4.22601 -1.04148 1 -7.36635 0.0235298 4
419 1 18.7595 0.915035 8.0773 10.0058 -0.256772 -0.507558 1 -7.31176 0.0625163 4
420 1 20.5002 2.67189 8.02845 -1.86939 -6.59154 4.96223 1 -7.38143 0.044545 4
421 1 17.8663 3.57249 7.16137 -5.91437 -5.08277 -0.835972 1 -7.333 0.0382874 4
423 1 0.890117 4.47068 4.51174 -4.68819 5.39185 -6.17141 1 -7.40665 0.0554815 4
424 1 0.903637 6.2483 6.29734 2.81021 0.0279739 0.639204 1 -7.38553 0.00517027 4
425 1 2.66678 4.44149 6.3576 -2.82753 1.93633 -1.73754 1 -7.25076 0.00918909 4
426 1 2.68017 6.2832 4.45841 -5.32224 3.67558 2.83403 1 -7.32359 0.0310391 4
427 1 3.57535 5.34151 5.37598 0.733087 -3.6103 2.39254 1 -7.15855 0.0120103 4
428 1 1.80373 7.14407 5.4117 1.39901 -5.7215 -7.836 1 -7.38462 0.0598125 4
429 1 0.875028 8.02288 4.53514 -0.132274 -0.00230765 4.43345 1 -7.30771 0.012245 4
430 1 2.64584 8.04274 6.30799 5.62036 2.77274 -0.468294 1 -7.37847 0.0245833 4
431 1 1.7471 5.35411 7.17041 -0.651003 2.63239 1.14351 1 -7.386 0.00539076 4
432 1 0.896238 4.5023 8.05751 7.77902 -0.0947974 -1.44875 1 -7.28905 0.038977 4
433 1 2.66567 6.27911 8.04992 4.66264 0.092196 2.76286 1 -7.27317 0.0182882 4
434 1 0.877002 8.07104 8.0871 -2.48017 -3.64227 5.82804 1 -7.30138 0.0332273 4