ITEM: TIMESTEP
49125450
ITEM: NUMBER OF ATOMS
3060
ITEM: BOX BOUNDS pp pp mm
0.0000000000000000e+00 2.1394294200000001e+01
0.0000000000000000e+00 2.1394294200000001e+01
-5.3491084073550004e-03 5.3485735499999997e+01
ITEM: ATOMS id type x y z vx vy vz c_clusts c_atom_pe c_atom_ke c_atom_coord
1 1 0 0 0 0 0 0 1 -3.34096 0 2
2 1 1.78286 1.78286 0 0 0 0 1 -3.34884 0 2
3 1 0.891429 0.891429 0.891429 0 0 0 1 -7.01994 0 4
4 1 0.928447 2.6639 2.6925 1.21248 8.591 -2.46214 1 -7.36107 0.0506266 4
5 1 2.72603 0.925523 2.74251 4.14998 3.87567 -5.49639 1 -7.27505 0.0388726 4
6 1 2.67429 2.67429 0.891429 0 0 0 1 -6.98977 0 4
7 1 3.56572 0 0 0 0 0 1 -3.34277 0 2
8 1 3.60364 1.82746 1.81266 -1.36718 0.395663 6.22806 1 -7.30248 0.025404 4
9 1 0 3.56572 0 0 0 0 1 -3.34504 0 2
10 1 1.80709 3.6112 1.76836 3.27769 -1.28606 2.81425 1 -7.29188 0.012646 4
11 1 3.56572 3.56572 0 0 0 0 1 -3.31914 0 2
12 1 1.76283 1.77782 3.5854 2.01394 2.338 -5.9918 1 -7.34399 0.028273 4
13 1 3.54632 3.52685 3.56841 4.74053 1.82172 -0.739842 1 -7.24228 0.0163938 4
292 1 1.79587 0.00968006 1.77892 5.33631 -0.933388 -3.27153 1 -7.26741 0.0249284 4
56 1 0.0222108 3.57316 3.59242 -9.38435 3.40414 -1.70408 1 -7.34699 0.0638349 4
55 1 0.0276644 1.79562 1.78085 3.59941 1.05966 -0.848815 1 -7.32736 0.00921135 4
291 1 3.59385 0.0266569 3.63289 -5.90662 7.46983 -8.64914 1 -7.33563 0.103008 4
14 1 5.34857 1.78286 0 0 0 0 1 -3.33377 0 2
15 1 4.45714 0.891429 0.891429 0 0 0 1 -6.96764 0 4
16 1 4.49118 2.75205 2.64647 2.47092 0.12611 5.25133 1 -7.28041 0.0209744 4
17 1 6.27429 0.895982 2.61966 5.6546 -4.39954 -0.817028 1 -7.20727 0.0323649 4
18 1 6.24 2.67429 0.891429 0 0 0 1 -7.0399 0 4
19 1 7.13143 0 0 0 0 0 1 -3.35023 0 2
20 1 7.15501 1.7666 1.74996 -4.38882 -1.50078 2.95033 1 -7.40313 0.0188088 4
21 1 8.02286 0.891429 0.891429 0 0 0 1 -7.01322 0 4
22 1 8.05799 2.65758 2.65212 -7.91623 -9.43691 2.02366 1 -7.3557 0.0969846 4
23 1 5.36791 3.5914 1.74748 -0.00449477 2.05821 -0.483488 1 -7.38797 0.00278226 4
24 1 7.13143 3.56572 0 0 0 0 1 -3.29975 0 2
25 1 5.34746 1.8053 3.58387 -0.75283 -6.37239 2.21741 1 -7.27117 0.0286882 4
26 1 7.12287 3.54659 3.57242 -4.44574 -1.01948 -6.65699 1 -7.31906 0.0405321 4
28 1 8.91429 1.78286 0 0 0 0 1 -3.30826 0 2
29 1 9.81611 0.910437 2.67009 -2.71633 -1.06109 3.18838 1 -7.36397 0.0116208 4
30 1 9.80572 2.67429 0.891429 0 0 0 1 -6.99379 0 4
31 1 10.6971 0 0 0 0 0 1 -3.32702 0 2
32 1 10.73 1.79561 1.7652 3.00307 -5.08365 2.7002 1 -7.34408 0.0262372 4
33 1 12.48 1.78286 0 0 0 0 1 -3.34053 0 2
34 1 11.5886 0.891429 0.891429 0 0 0 1 -7.00879 0 4
35 1 11.6113 2.6471 2.69443 -7.1083 -2.15964 -3.44531 1 -7.31385 0.0417413 4
36 1 8.88031 3.57655 1.76731 -2.0598 1.917 -0.541706 1 -7.34851 0.00511081 4
37 1 10.6971 3.56572 0 0 0 0 1 -3.31986 0 2
38 1 12.4895 3.56039 1.77609 -1.39587 -4.64007 -8.11635 1 -7.30595 0.0556162 4
39 1 8.93954 1.76329 3.53928 1.89268 -1.77625 -5.77841 1 -7.44855 0.0249763 4
40 1 12.5076 1.74452 3.62197 -9.68255 6.81143 2.81558 1 -7.33163 0.0921657 4
41 1 10.7151 3.5646 3.55371 -7.16622 -3.55933 1.267 1 -7.34884 0.0408491 4
320 1 8.95972 0.0136937 1.73988 -1.48639 -8.15296 1.63945 1 -7.36114 0.0444212 4
319 1 10.7122 0.0296361 3.56007 4.8555 1.15335 2.53056 1 -7.30173 0.019488 4
42 1 13.3782 0.915472 2.69532 2.04132 -3.56243 -5.24939 1 -7.32269 0.0276444 4
43 1 13.3714 2.67429 0.891429 0 0 0 1 -7.0027 0 4
44 1 14.2629 0 0 0 0 0 1 -3.3407 0 2
45 1 14.295 1.82602 1.80613 -2.63873 4.37682 -0.312395 1 -7.3465 0.0163182 4
46 1 16.0457 1.78286 0 0 0 0 1 -3.31276 0 2
47 1 15.1543 0.891429 0.891429 0 0 0 1 -7.01476 0 4
48 1 15.1571 2.69834 2.65481 1.4448 2.87092 -0.962683 1 -7.30536 0.00700627 4
49 1 16.9753 0.897862 2.66719 -7.17719 3.51617 -0.486107 1 -7.29251 0.0399049 4
50 1 16.9371 2.67429 0.891429 0 0 0 1 -7.01552 0 4
51 1 14.2629 3.56572 0 0 0 0 1 -3.32567 0 2
52 1 16.0342 3.56459 1.76982 -6.86268 5.46776 -1.92617 1 -7.37976 0.0502317 4
53 1 16.1262 1.80766 3.58381 -4.14909 5.04664 0.135978 1 -7.28762 0.0265788 4
54 1 14.2376 3.52848 3.599 -1.28634 1.88739 -0.924274 1 -7.30385 0.00377887 4
336 1 14.3032 0.0476125 3.59869 -0.244396 -2.43295 3.06225 1 -7.25496 0.00955821 4
350 1 21.395 0.0149251 3.64881 3.10619 -1.73266 -9.10144 1 -7.37312 0.0594335 4
57 1 17.8286 0 0 0 0 0 1 -3.33056 0 2
58 1 17.8399 1.76535 1.78163 -1.7183 -1.5921 -1.7084 1 -7.38394 0.00523211 4
59 1 19.6114 1.78286 0 0 0 0 1 -3.32694 0 2
60 1 18.72 0.891429 0.891429 0 0 0 1 -7.0408 0 4
61 1 18.6789 2.6587 2.66663 -9.01372 4.61366 0.838928 1 -7.34805 0.0642573 4
62 1 20.5171 0.88123 2.71093 -2.69593 1.88353 -5.63104 1 -7.30874 0.0264683 4
63 1 20.5029 2.67429 0.891429 0 0 0 1 -7.00786 0 4
64 1 17.8286 3.56572 0 0 0 0 1 -3.33301 0 2
65 1 19.5747 3.58003 1.77715 -1.27841 0.873702 -1.10907 1 -7.29514 0.00225799 4
66 1 19.6372 1.80209 3.56347 2.38418 6.76949 -3.98771 1 -7.31941 0.0419591 4
67 1 17.7848 3.58689 3.54955 3.35909 0.952287 -0.556932 1 -7.34567 0.00778066 4
68 1 19.6238 0.0193087 1.76133 -2.20862 2.27498 -2.1201 1 -7.3617 0.00905528 4
69 1 1.78286 5.34857 0 0 0 0 1 -3.32092 0 2
70 1 0.891429 4.45714 0.891429 0 0 0 1 -7.01455 0 4
71 1 0.919298 6.30727 2.71935 -5.76951 -6.58857 -11.217 1 -7.33991 0.126052 4
72 1 2.67478 4.54333 2.66434 -3.99787 -4.95583 -3.66599 1 -7.24747 0.0336002 4
73 1 2.67429 6.24 0.891429 0 0 0 1 -7.00071 0 4
74 1 3.59707 5.36949 1.76984 -8.60286 -3.4219 3.68706 1 -7.33636 0.0618151 4
75 1 0 7.13143 0 0 0 0 1 -3.34003 0 2
76 1 1.77988 7.1254 1.80986 2.27049 1.96766 2.64311 1 -7.33752 0.0099668 4
77 1 0.891429 8.02286 0.891429 0 0 0 1 -7.02645 0 4
78 1 2.67172 8.00686 2.69552 -5.41865 -7.46397 2.59653 1 -7.3515 0.0571478 4
79 1 3.56572 7.13143 0 0 0 0 1 -3.32301 0 2
80 1 1.78446 5.41867 3.57167 -0.800667 -5.2234 0.805392 1 -7.34409 0.017785 4
81 1 3.56443 7.14622 3.58254 2.20201 -3.60912 -7.61232 1 -7.39316 0.0471936 4
128 1 0.0102041 5.38335 1.79351 0.090691 -5.24372 -4.12682 1 -7.29962 0.02772 4
83 1 5.34857 5.34857 0 0 0 0 1 -3.30366 0 2
84 1 4.45714 4.45714 0.891429 0 0 0 1 -7.06478 0 4
85 1 4.45851 6.27564 2.70026 0.436227 6.18478 2.67507 1 -7.30824 0.0283812 4
86 1 6.22309 4.43168 2.70871 5.30203 2.04013 0.867926 1 -7.36715 0.0205569 4
87 1 6.24 6.24 0.891429 0 0 0 1 -7.0064 0 4
88 1 7.10383 5.31411 1.79214 0.389311 -0.504988 5.02157 1 -7.32951 0.0159483 4
89 1 8.02286 4.45714 0.891429 0 0 0 1 -7.02941 0 4
90 1 8.01602 6.22295 2.64763 0.743241 7.65262 -14.6425 1 -7.28587 0.170245 4
91 1 5.36468 7.13545 1.77641 -4.99328 -2.2943 -0.750284 1 -7.34273 0.0191456 4
92 1 4.45714 8.02286 0.891429 0 0 0 1 -7.01112 0 4
93 1 6.32084 8.04279 2.64873 9.65536 -4.32103 6.31349 1 -7.29688 0.0944578 4
94 1 7.13143 7.13143 0 0 0 0 1 -3.34327 0 2
95 1 8.02286 8.02286 0.891429 0 0 0 1 -6.99632 0 4
96 1 5.34595 5.32215 3.59235 1.49393 -2.88659 8.82259 1 -7.34955 0.0550239 4
97 1 7.13209 7.11391 3.58496 -1.80941 5.72661 -1.29918 1 -7.31957 0.0235003 4
98 1 8.91429 5.34857 0 0 0 0 1 -3.33666 0 2
99 1 9.80459 4.47505 2.66884 9.05962 -2.17084 -1.06068 1 -7.33884 0.0547202 4
100 1 9.80572 6.24 0.891429 0 0 0 1 -6.98881 0 4
101 1 10.6901 5.36837 1.76688 7.14534 2.1763 3.72143 1 -7.3626 0.0433464 4
102 1 12.48 5.34857 0 0 0 0 1 -3.31812 0 2
103 1 11.5886 4.45714 0.891429 0 0 0 1 -7.01521 0 4
104 1 11.5902 6.22101 2.65994 -1.75026 -0.497845 2.86634 1 -7.32882 0.00717482 4
105 1 8.85053 7.11897 1.78982 4.13088 3.81282 -4.60715 1 -7.35266 0.0328813 4
106 1 9.78574 7.98414 2.67079 -5.63192 -0.661445 0.538284 1 -7.33476 0.0201951 4
107 1 10.6971 7.13143 0 0 0 0 1 -3.33603 0 2
108 1 12.4729 7.15334 1.73184 -0.0417038 6.28204 -1.16298 1 -7.33088 0.0254064 4
109 1 11.5886 8.02286 0.891429 0 0 0 1 -7.04073 0 4
110 1 8.93342 5.34446 3.58644 -4.24318 1.37375 -7.45171 1 -7.34721 0.0469432 4
111 1 12.5169 5.3298 3.54281 5.71208 -6.33284 -1.25263 1 -7.34342 0.0462474 4
112 1 10.6933 7.07507 3.55478 -1.01017 -3.22114 -3.01434 1 -7.32591 0.0127488 4
113 1 13.383 4.47943 2.69079 -6.25062 9.73363 -3.62901 1 -7.29606 0.0914864 4
114 1 13.3714 6.24 0.891429 0 0 0 1 -6.98134 0 4
115 1 14.3065 5.32324 1.76807 6.61498 -6.19853 8.49588 1 -7.36087 0.0960775 4
116 1 16.0457 5.34857 0 0 0 0 1 -3.34472 0 2
117 1 15.1543 4.45714 0.891429 0 0 0 1 -7.05024 0 4
118 1 15.1783 6.18654 2.70245 -4.39458 -1.96641 -1.91115 1 -7.3003 0.0167007 4
119 1 16.9242 4.44105 2.6916 -1.07869 0.888961 -2.42022 1 -7.34663 0.00486195 4
120 1 16.9371 6.24 0.891429 0 0 0 1 -7.02205 0 4
121 1 13.3743 8.00931 2.6118 0.936823 -4.96004 0.916363 1 -7.29611 0.0163819 4
122 1 14.2629 7.13143 0 0 0 0 1 -3.31592 0 2
123 1 16.0771 7.14851 1.75193 2.7212 -4.50528 -4.58589 1 -7.30974 0.0303326 4
124 1 15.1543 8.02286 0.891429 0 0 0 1 -7.02979 0 4
125 1 16.9432 8.00127 2.62762 6.09505 4.2427 6.32558 1 -7.31624 0.059232 4
126 1 16.0793 5.33919 3.56363 12.0993 -2.28332 -6.05344 1 -7.34974 0.117172 4
127 1 14.3112 7.08409 3.5571 -1.85734 1.45393 -5.09871 1 -7.29201 0.0196441 4
82 1 21.3947 7.1624 3.59963 8.08901 -1.69005 -5.01452 1 -7.38339 0.0581557 4
129 1 17.8211 5.36866 1.78511 0.759631 1.29056 0.258729 1 -7.32854 0.0014375 4
130 1 19.6114 5.34857 0 0 0 0 1 -3.33247 0 2
131 1 18.72 4.45714 0.891429 0 0 0 1 -7.01744 0 4
132 1 18.7095 6.23632 2.70249 -2.88068 1.38869 2.35238 1 -7.34324 0.00980973 4
133 1 20.5067 4.48578 2.71583 3.46002 1.9091 1.99005 1 -7.32768 0.0121851 4
134 1 20.5029 6.24 0.891429 0 0 0 1 -6.99367 0 4
135 1 17.8286 7.13143 0 0 0 0 1 -3.30801 0 2
136 1 19.5607 7.11711 1.7808 -1.79438 -4.98645 5.44984 1 -7.30792 0.0359671 4
137 1 18.72 8.02286 0.891429 0 0 0 1 -7.01709 0 4
138 1 20.5193 8.00291 2.69538 4.8589 0.485444 1.29425 1 -7.29782 0.0158841 4
139 1 19.6284 5.38294 3.58207 -1.51113 0.185696 -7.81313 1 -7.39158 0.0394388 4
140 1 17.8143 7.13774 3.56 -3.81221 -1.92259 -4.7348 1 -7.33872 0.0253002 4
141 1 1.78286 8.91429 0 0 0 0 1 -3.34052 0 2
142 1 0.894124 9.78062 2.70769 -1.33123 6.10902 -3.16226 1 -7.31932 0.0305563 4
143 1 2.67429 9.80572 0.891429 0 0 0 1 -7.05914 0 4
144 1 3.54667 8.92217 1.76241 3.34891 -4.36435 3.02049 1 -7.36297 0.024515 4
145 1 0 10.6971 0 0 0 0 1 -3.33341 0 2
146 1 1.808 10.6928 1.749 3.11877 -0.890483 -2.80178 1 -7.26366 0.0114338 4
147 1 1.78286 12.48 0 0 0 0 1 -3.31174 0 2
148 1 0.891429 11.5886 0.891429 0 0 0 1 -7.02562 0 4
149 1 2.7288 11.5904 2.69898 9.35517 -0.041217 -2.3494 1 -7.3137 0.0579109 4
150 1 3.56572 10.6971 0 0 0 0 1 -3.32065 0 2
151 1 3.53855 12.502 1.79331 5.33413 0.196552 0.275581 1 -7.29855 0.0177811 4
152 1 1.78389 8.89728 3.57644 -11.4016 -3.71275 -3.21416 1 -7.38835 0.095923 4
153 1 1.75824 12.4809 3.52767 3.94455 0.401264 -3.28462 1 -7.28926 0.0165 4
154 1 3.58494 10.6896 3.6204 1.99209 -0.50616 8.78613 1 -7.40103 0.0506783 4
205 1 0.021523 8.88733 1.77539 7.79864 -5.71945 -1.6322 1 -7.30637 0.0598743 4
204 1 0.0274687 12.5029 1.75508 12.8013 -1.76385 -1.01066 1 -7.37199 0.104571 4
155 1 5.34857 8.91429 0 0 0 0 1 -3.33834 0 2
156 1 4.44841 9.77208 2.70587 3.39039 -0.432762 -2.67246 1 -7.3133 0.0117166 4
157 1 6.24 9.80572 0.891429 0 0 0 1 -7.01452 0 4
158 1 7.15976 8.93877 1.81084 5.31698 2.6445 3.37639 1 -7.33589 0.0290447 4
159 1 8.07508 9.8293 2.68545 1.1984 2.85606 -0.917775 1 -7.26929 0.00649537 4
160 1 5.36211 10.6638 1.78484 -1.75906 4.39167 -5.58233 1 -7.30496 0.0333268 4
161 1 5.34857 12.48 0 0 0 0 1 -3.35066 0 2
162 1 4.45714 11.5886 0.891429 0 0 0 1 -6.95891 0 4
163 1 6.26706 11.5933 2.64924 0.619294 -2.41837 -0.981073 1 -7.2819 0.00447806 4
164 1 7.13143 10.6971 0 0 0 0 1 -3.34915 0 2
165 1 7.16355 12.5052 1.78423 2.89085 2.82193 -4.26533 1 -7.38664 0.021482 4
166 1 8.02286 11.5886 0.891429 0 0 0 1 -7.03882 0 4
167 1 5.4042 8.91164 3.56897 -0.744692 8.61109 0.674506 1 -7.33082 0.0467818 4
168 1 5.32973 12.4655 3.5767 10.8122 -0.468506 -4.24859 1 -7.27327 0.0841351 4
169 1 7.12964 10.7203 3.63127 -5.02618 -4.50292 -3.98594 1 -7.2637 0.0382334 4
170 1 8.91429 8.91429 0 0 0 0 1 -3.32908 0 2
171 1 9.80572 9.80572 0.891429 0 0 0 1 -6.9345 0 4
172 1 10.6925 8.86576 1.80468 3.85325 -3.51027 1.2901 1 -7.3644 0.017947 4
173 1 12.48 8.91429 0 0 0 0 1 -3.32771 0 2
174 1 11.5487 9.7835 2.66735 -1.98734 -2.76394 -7.06434 1 -7.40198 0.0382753 4
175 1 8.86916 10.7388 1.78173 -4.07851 -1.94089 0.444696 1 -7.28658 0.0128214 4
176 1 8.91429 12.48 0 0 0 0 1 -3.34208 0 2
177 1 9.77482 11.606 2.73582 -5.73419 0.276626 -2.64295 1 -7.23397 0.0248614 4
178 1 10.6971 10.6971 0 0 0 0 1 -3.33087 0 2
179 1 10.6851 12.5127 1.76173 -2.64346 -0.720724 -0.30527 1 -7.30157 0.00473075 4
180 1 12.4444 10.6908 1.78106 -1.15417 1.43181 2.30151 1 -7.3972 0.00540211 4
181 1 12.48 12.48 0 0 0 0 1 -3.33217 0 2
182 1 11.5886 11.5886 0.891429 0 0 0 1 -7.03937 0 4
183 1 8.93206 8.90674 3.60212 -2.64065 4.57215 -9.51369 1 -7.36344 0.0736877 4
184 1 12.4423 8.90816 3.52581 -3.23489 -7.88143 -8.14648 1 -7.33535 0.086484 4
185 1 8.87292 12.4901 3.61645 2.05415 -3.19498 5.01769 1 -7.35452 0.0246509 4
186 1 10.6803 10.6591 3.59385 -3.80458 8.96023 1.34184 1 -7.39552 0.0601021 4
187 1 12.4924 12.4262 3.56822 4.87629 -7.0641 1.18724 1 -7.25225 0.0467375 4
188 1 13.3714 9.80572 0.891429 0 0 0 1 -6.97698 0 4
189 1 14.2618 8.90469 1.77626 -1.01434 -7.62173 3.00912 1 -7.36015 0.0424336 4
190 1 16.0457 8.91429 0 0 0 0 1 -3.335 0 2
191 1 15.1811 9.84621 2.66056 3.97304 -6.88483 5.25383 1 -7.25851 0.0565093 4
192 1 16.9371 9.80572 0.891429 0 0 0 1 -7.01085 0 4
193 1 13.3691 11.5322 2.66191 4.73405 2.23726 1.85429 1 -7.32227 0.0192049 4
194 1 14.2629 10.6971 0 0 0 0 1 -3.35182 0 2
195 1 14.2427 12.4767 1.78832 5.97234 3.06024 10.3041 1 -7.36873 0.0941155 4
196 1 16.0869 10.7554 1.77152 -5.5796 0.720846 -2.89725 1 -7.35386 0.0249254 4
197 1 16.0457 12.48 0 0 0 0 1 -3.32772 0 2
198 1 15.1543 11.5886 0.891429 0 0 0 1 -6.97587 0 4
199 1 16.9508 11.6242 2.66602 -1.93536 4.29108 -1.12303 1 -7.34831 0.0145773 4
200 1 16.0691 8.94428 3.59719 1.79096 1.468 2.93539 1 -7.25383 0.00870094 4
201 1 14.2872 10.6748 3.60461 -6.3897 3.28024 2.7505 1 -7.32399 0.0368187 4
202 1 16.0194 12.5084 3.53087 -3.88182 4.49062 4.33002 1 -7.30344 0.0336006 4
203 1 21.3741 10.6747 3.53728 1.45314 3.01826 -2.11604 1 -7.36592 0.00977154 4
206 1 17.8191 8.92447 1.76258 -3.98688 -2.34676 9.1792 1 -7.33718 0.0657657 4
207 1 19.6114 8.91429 0 0 0 0 1 -3.33074 0 2
208 1 18.7466 9.83789 2.62295 6.80235 5.33511 -4.02112 1 -7.32377 0.0565815 4
209 1 20.5029 9.80572 0.891429 0 0 0 1 -6.99024 0 4
210 1 17.8286 10.6971 0 0 0 0 1 -3.31583 0 2
211 1 17.8637 12.5066 1.76122 -5.26425 -6.66692 8.29857 1 -7.32676 0.0877785 4
212 1 19.587 10.7053 1.75881 0.468424 3.12309 7.56836 1 -7.38886 0.0418601 4
213 1 19.6114 12.48 0 0 0 0 1 -3.33885 0 2
214 1 18.72 11.5886 0.891429 0 0 0 1 -7.04297 0 4
215 1 20.5063 11.5751 2.60775 6.43191 1.46874 1.24224 1 -7.33107 0.0280527 4
216 1 19.6407 8.94626 3.52636 -5.16438 3.99199 3.11337 1 -7.32606 0.0325528 4
217 1 17.7996 10.7398 3.54359 6.3378 -3.77032 3.87547 1 -7.33104 0.0431978 4
218 1 19.6522 12.4952 3.52811 0.883578 0.645344 -4.74834 1 -7.28993 0.0147789 4
219 1 0.885378 13.3708 2.65561 4.04842 -0.989828 0.65988 1 -7.38753 0.0110822 4
220 1 2.67429 13.3714 0.891429 0 0 0 1 -7.05117 0 4
221 1 0 14.2629 0 0 0 0 1 -3.29209 0 2
222 1 1.78312 14.256 1.76239 4.47322 -4.05146 -1.2974 1 -7.37096 0.0237189 4
223 1 1.78286 16.0457 0 0 0 0 1 -3.32976 0 2
224 1 0.891429 15.1543 0.891429 0 0 0 1 -7.03377 0 4
225 1 0.877718 16.9509 2.66522 2.46566 4.85061 -4.33235 1 -7.37006 0.0301112 4
226 1 2.6623 15.1617 2.65784 -1.13929 7.42779 -7.45711 1 -7.35474 0.0697606 4
227 1 2.67429 16.9371 0.891429 0 0 0 1 -6.99321 0 4
228 1 3.56572 14.2629 0 0 0 0 1 -3.34847 0 2
229 1 3.59152 16.0513 1.79659 1.60002 1.47809 7.69425 1 -7.3502 0.0398018 4
230 1 1.77743 16.0868 3.55308 -3.36717 5.11071 0.195779 1 -7.36114 0.0233382 4
231 1 3.53657 14.324 3.56125 4.49725 2.73103 -1.10186 1 -7.31541 0.0179868 4
233 1 0.00165081 16.0259 1.74474 5.61077 3.34795 0.886365 1 -7.34233 0.0270601 4
232 1 0.015572 14.3029 3.54696 1.30147 0.343658 4.82042 1 -7.31328 0.0155907 4
234 1 4.47613 13.418 2.68979 -1.46526 -7.78919 -5.20938 1 -7.29611 0.055991 4
235 1 6.24 13.3714 0.891429 0 0 0 1 -7.04029 0 4
236 1 8.04647 13.375 2.68408 7.50934 -1.10462 -3.89155 1 -7.37158 0.0452844 4
237 1 5.37974 14.2535 1.78498 -9.06149 -0.214483 4.65544 1 -7.37651 0.0646264 4
238 1 5.34857 16.0457 0 0 0 0 1 -3.32677 0 2
239 1 4.45714 15.1543 0.891429 0 0 0 1 -6.98908 0 4
240 1 4.45639 16.9187 2.67278 -4.32759 3.39515 7.83854 1 -7.32747 0.0570751 4
241 1 6.24561 15.1779 2.65717 2.11929 -0.698375 -7.87674 1 -7.29198 0.0417164 4
242 1 6.24 16.9371 0.891429 0 0 0 1 -6.97032 0 4
243 1 7.13143 14.2629 0 0 0 0 1 -3.34435 0 2
244 1 7.16505 16.0617 1.78069 -3.33229 1.47376 -4.0419 1 -7.37366 0.018432 4
245 1 8.02286 15.1543 0.891429 0 0 0 1 -7.03413 0 4
246 1 8.02511 16.9617 2.64934 -6.45627 -1.8385 2.11109 1 -7.3505 0.0308227 4
247 1 5.33239 16.0636 3.5762 -10.2547 -8.78495 3.47389 1 -7.38859 0.121001 4
248 1 7.16129 14.2671 3.60228 -1.08802 3.7873 -6.87417 1 -7.27189 0.0390769 4
249 1 9.80572 13.3714 0.891429 0 0 0 1 -6.99449 0 4
250 1 11.5741 13.3949 2.66037 1.57319 4.61303 -6.0449 1 -7.27977 0.0375297 4
251 1 8.92085 14.3087 1.79783 7.60672 -0.545527 3.66118 1 -7.34419 0.0445433 4
252 1 8.91429 16.0457 0 0 0 0 1 -3.32181 0 2
253 1 9.81673 15.1741 2.67875 8.89006 3.21469 -6.5505 1 -7.33939 0.0823324 4
254 1 9.80572 16.9371 0.891429 0 0 0 1 -7.03276 0 4
255 1 10.6971 14.2629 0 0 0 0 1 -3.32753 0 2
256 1 10.6919 16.06 1.78142 -9.40072 -0.691429 -2.14305 1 -7.40066 0.0581622 4
257 1 12.4695 14.3012 1.77241 -0.125521 1.38086 5.47583 1 -7.37506 0.0198599 4
258 1 12.48 16.0457 0 0 0 0 1 -3.32208 0 2
259 1 11.5886 15.1543 0.891429 0 0 0 1 -7.0338 0 4
260 1 11.552 16.9255 2.65485 10.7229 3.57765 0.635409 1 -7.2771 0.0797849 4
261 1 8.91447 16.0523 3.59106 14.5495 7.48441 10.3951 1 -7.30823 0.233885 4
262 1 10.6962 14.2409 3.59968 11.9636 7.07692 -5.83005 1 -7.35902 0.141415 4
263 1 12.5298 16.012 3.56256 -2.32283 -4.28236 6.32245 1 -7.30137 0.0396533 4
264 1 13.3714 13.3714 0.891429 0 0 0 1 -7.00879 0 4
265 1 15.1645 13.3558 2.64532 3.28106 -3.84685 -6.25176 1 -7.35792 0.0402387 4
266 1 16.9371 13.3714 0.891429 0 0 0 1 -7.00715 0 4
267 1 13.3533 15.1181 2.65213 -4.69417 6.7335 4.9888 1 -7.34631 0.0574272 4
268 1 13.3714 16.9371 0.891429 0 0 0 1 -7.02788 0 4
269 1 14.2629 14.2629 0 0 0 0 1 -3.32642 0 2
270 1 14.2694 16.0294 1.744 -6.58993 -0.471916 4.91282 1 -7.31155 0.0421916 4
271 1 16.0578 14.2679 1.76837 5.15799 2.63789 -3.22244 1 -7.39567 0.027354 4
272 1 16.0457 16.0457 0 0 0 0 1 -3.33426 0 2
273 1 15.1543 15.1543 0.891429 0 0 0 1 -7.03526 0 4
274 1 15.1547 16.9438 2.69033 3.19967 1.64395 -12.3079 1 -7.24042 0.102343 4
275 1 16.9175 15.1409 2.66648 8.48778 -8.15473 -6.03702 1 -7.40933 0.108917 4
276 1 16.9371 16.9371 0.891429 0 0 0 1 -7.05278 0 4
277 1 14.2737 14.2489 3.55014 -5.1886 3.29572 8.57169 1 -7.34837 0.0692494 4
278 1 16.0566 16.0154 3.56393 3.8314 -0.00290359 2.02611 1 -7.32896 0.0116921 4
279 1 18.754 13.4304 2.6636 -0.381983 -0.618746 5.70304 1 -7.32963 0.0205733 4
280 1 20.5029 13.3714 0.891429 0 0 0 1 -6.98731 0 4
281 1 17.8286 14.2629 0 0 0 0 1 -3.32269 0 2
282 1 17.7939 16.059 1.77846 6.4824 6.64754 3.22445 1 -7.35518 0.0601316 4
283 1 19.6343 14.3215 1.77912 -6.3147 1.30254 0.765503 1 -7.35554 0.0262403 4
284 1 19.6114 16.0457 0 0 0 0 1 -3.30482 0 2
285 1 18.72 15.1543 0.891429 0 0 0 1 -6.99377 0 4
286 1 18.7082 16.9427 2.63888 1.03345 -10.282 1.77861 1 -7.35408 0.068437 4
287 1 20.5346 15.1716 2.63408 -10.1367 -7.64072 -0.866919 1 -7.31002 0.100762 4
288 1 20.5029 16.9371 0.891429 0 0 0 1 -7.02462 0 4
289 1 17.8203 14.2613 3.53837 3.61824 -1.33866 -0.588838 1 -7.33432 0.0094798 4
290 1 19.5804 16.1014 3.54722 3.78125 -4.00005 -1.56524 1 -7.28479 0.0203833 4
293 1 0 17.8286 0 0 0 0 1 -3.3343 0 2
294 1 1.75191 17.8243 1.77787 -1.0328 5.16645 -4.70753 1 -7.38212 0.0310713 4
295 1 1.78286 19.6114 0 0 0 0 1 -3.34216 0 2
296 1 0.891429 18.72 0.891429 0 0 0 1 -7.01397 0 4
297 1 0.880223 20.5488 2.72608 -0.297475 3.62442 0.130989 1 -7.27809 0.00824223 4
298 1 2.63618 18.7182 2.64535 -6.85485 -2.36203 -0.244596 1 -7.41609 0.032757 4
299 1 2.67429 20.5029 0.891429 0 0 0 1 -7.04301 0 4
300 1 3.56572 17.8286 0 0 0 0 1 -3.32022 0 2
301 1 3.51312 19.6198 1.76958 0.232294 7.76294 9.44302 1 -7.3515 0.0930451 4
302 1 1.80209 19.61 3.53844 -2.29103 0.752324 -1.23617 1 -7.27284 0.00457044 4
303 1 3.51937 17.8581 3.56186 2.9284 0.959312 -0.619572 1 -7.32545 0.00614938 4
27 1 5.31708 21.3508 1.79795 3.57364 1.75478 1.34347 1 -7.3123 0.010989 4
306 1 7.14164 21.399 3.58473 5.58201 7.76644 -4.34505 1 -7.25858 0.0686884 4
307 1 5.31807 17.853 1.76996 -2.33897 6.4013 3.54901 1 -7.29682 0.0367498 4
308 1 5.34857 19.6114 0 0 0 0 1 -3.33505 0 2
309 1 4.45714 18.72 0.891429 0 0 0 1 -7.01352 0 4
310 1 4.42745 20.5132 2.68792 3.40851 -7.5611 2.85949 1 -7.36076 0.0479049 4
311 1 6.25395 18.7782 2.69016 2.35523 -6.43821 -4.34663 1 -7.2816 0.0410122 4
312 1 6.24 20.5029 0.891429 0 0 0 1 -7.00162 0 4
313 1 7.13143 17.8286 0 0 0 0 1 -3.3216 0 2
314 1 7.13055 19.6372 1.79007 2.08129 -1.1963 3.29668 1 -7.38504 0.0103516 4
315 1 8.02286 18.72 0.891429 0 0 0 1 -6.9938 0 4
316 1 8.05987 20.5054 2.63553 -1.04028 -7.11223 -6.47233 1 -7.2602 0.0582324 4
317 1 5.29937 19.6432 3.58769 1.19355 -4.57594 -2.35985 1 -7.29281 0.017386 4
318 1 7.12993 17.8447 3.58142 2.9003 4.68403 -1.20606 1 -7.39235 0.0197972 4
321 1 12.4999 21.3699 1.79241 -5.41798 1.17972 3.63696 1 -7.37726 0.0273704 4
322 1 8.91303 17.8206 1.78173 -9.21787 -2.19103 -3.9482 1 -7.39336 0.0655776 4
323 1 8.91429 19.6114 0 0 0 0 1 -3.33332 0 2
324 1 9.79335 18.7079 2.67246 -0.989066 -3.24863 5.30959 1 -7.32445 0.024725 4
325 1 9.80572 20.5029 0.891429 0 0 0 1 -7.05373 0 4
326 1 10.6971 17.8286 0 0 0 0 1 -3.32595 0 2
327 1 10.6672 19.622 1.75762 -1.35799 -0.101198 -3.15566 1 -7.29326 0.00735245 4
328 1 12.496 17.8215 1.77561 -2.54215 4.19784 -6.13694 1 -7.37206 0.0384325 4
329 1 12.48 19.6114 0 0 0 0 1 -3.33524 0 2
330 1 11.5886 18.72 0.891429 0 0 0 1 -6.96526 0 4
331 1 11.6526 20.4955 2.66348 2.53608 -3.80645 0.310046 1 -7.29294 0.0130815 4
332 1 8.93333 19.6443 3.56881 7.45978 -5.7296 -3.99807 1 -7.31197 0.0650194 4
333 1 10.7161 17.8359 3.56452 0.860245 -3.58243 2.52524 1 -7.36397 0.0124178 4
334 1 12.4818 19.5821 3.56256 0.460698 4.0442 7.36687 1 -7.39375 0.0440918 4
335 1 16.0508 21.3831 1.76161 0.0290455 0.103287 2.72137 1 -7.35446 0.00461675 4
337 1 13.3714 18.7123 2.64973 0.0647362 -9.9845 -1.89017 1 -7.35059 0.0642761 4
338 1 13.3714 20.5029 0.891429 0 0 0 1 -7.03677 0 4
339 1 14.2629 17.8286 0 0 0 0 1 -3.33593 0 2
340 1 14.2768 19.6286 1.76578 -3.73433 -2.25892 -3.88411 1 -7.35532 0.021246 4
341 1 16.0888 17.8329 1.76297 -4.58991 -1.99561 0.829426 1 -7.31257 0.0160198 4
342 1 16.0457 19.6114 0 0 0 0 1 -3.30885 0 2
343 1 15.1543 18.72 0.891429 0 0 0 1 -6.98511 0 4
344 1 15.1917 20.4914 2.68123 3.09137 -0.66352 -5.6935 1 -7.31983 0.0263988 4
345 1 16.9117 18.737 2.66405 2.47856 -5.84545 -1.51924 1 -7.29155 0.0265282 4
346 1 16.9371 20.5029 0.891429 0 0 0 1 -7.00171 0 4
347 1 14.2882 17.8625 3.56846 -2.23797 -1.09088 4.32249 1 -7.37898 0.0154875 4
348 1 16.0466 19.6002 3.59159 -7.21305 -3.34772 -2.47486 1 -7.35195 0.0431717 4
349 1 17.8599 21.3711 3.60313 0.201238 9.93875 -3.90743 1 -7.30193 0.0710108 4
304 1 21.3598 17.8069 3.56622 7.63093 1.68175 4.98674 1 -7.30344 0.0534832 4
305 1 21.3796 19.6097 1.79088 9.72952 -4.51583 8.97194 1 -7.33969 0.121717 4
351 1 17.8286 17.8286 0 0 0 0 1 -3.31895 0 2
352 1 17.8412 19.6157 1.75285 2.20746 -0.542662 -1.4769 1 -7.39591 0.00457395 4
353 1 19.6105 17.7805 1.77954 -1.40185 5.43227 2.60775 1 -7.37137 0.0238234 4
354 1 19.6114 19.6114 0 0 0 0 1 -3.33478 0 2
355 1 18.72 18.72 0.891429 0 0 0 1 -7.00372 0 4
356 1 18.709 20.5221 2.6313 1.40537 -0.734787 -7.34135 1 -7.27516 0.0351113 4
357 1 20.5157 18.7152 2.65914 1.85615 -4.44059 -0.30876 1 -7.3195 0.0144773 4
358 1 20.5029 20.5029 0.891429 0 0 0 1 -7.02121 0 4
359 1 17.8106 17.8248 3.60195 -0.759988 -0.062107 3.81053 1 -7.26482 0.00939963 4
360 1 19.637 19.6245 3.59024 7.28273 -1.18635 5.23948 1 -7.3095 0.0509753 4
361 1 0.889768 0.890167 4.55091 -0.428151 2.3871 -1.20974 1 -7.35825 0.00457174 4
362 1 0.90929 2.69469 6.29339 -9.40251 7.357 0.929574 1 -7.34475 0.0892538 4
363 1 2.71143 0.893301 6.30405 2.09531 -5.7399 2.43742 1 -7.39725 0.0269372 4
364 1 2.66193 2.63616 4.47085 6.98643 -7.57845 0.555319 1 -7.28826 0.0663204 4
365 1 3.59691 1.74638 5.40915 -0.575166 5.82011 6.44511 1 -7.26538 0.047145 4
366 1 1.83967 3.55985 5.42462 -1.351 9.5989 -3.59416 1 -7.3383 0.0665262 4
367 1 1.83851 1.78838 7.20438 3.57616 2.22136 0.164058 1 -7.35023 0.0110482 4
368 1 0.902498 0.916441 8.04154 6.62369 3.89468 -0.919475 1 -7.35909 0.0372754 4
369 1 2.7312 2.6816 8.10434 -4.87848 -9.23926 4.94928 1 -7.33096 0.0831927 4
370 1 3.60831 3.60274 7.19403 -2.26663 -0.555619 8.96058 1 -7.23458 0.0533658 4
411 1 0.00408084 1.79908 5.41015 -0.130161 -4.30359 -0.561604 1 -7.40312 0.0117347 4
371 1 0.0506161 3.61679 7.15111 -3.57462 -2.35038 3.28903 1 -7.34406 0.018125 4
651 1 3.60916 0.0189189 7.14479 -5.59848 -0.198063 -0.959179 1 -7.29703 0.0201058 4
710 1 0.0430261 0.021197 7.20438 0.271543 3.63721 9.42583 1 -7.33304 0.0635804 4
652 1 1.81992 0.00577892 5.4272 5.21813 1.92666 3.33252 1 -7.36066 0.0261709 4
372 1 4.51582 0.891295 4.4434 2.9291 -10.912 3.78916 1 -7.35446 0.0883897 4
373 1 4.51464 2.65926 6.23549 5.34033 -1.68876 6.27039 1 -7.26613 0.0439986 4
374 1 6.2712 0.874472 6.26823 -7.2497 -2.93465 -3.17537 1 -7.3348 0.0443499 4
375 1 6.25993 2.66718 4.4478 2.77288 1.07012 -1.18479 1 -7.3913 0.00637223 4
376 1 7.12761 1.77352 5.32526 6.05553 1.55228 3.68771 1 -7.28701 0.0327883 4
377 1 8.08213 0.904566 4.43846 0.732329 0.306157 8.74228 1 -7.32037 0.0479626 4
378 1 8.06117 2.66691 6.26943 0.322432 1.27253 -3.07779 1 -7.27554 0.00696875 4
379 1 5.34366 3.56439 5.33648 -1.84101 -6.44573 -0.770927 1 -7.35016 0.0283398 4
380 1 5.38219 1.76857 7.16069 5.59165 -2.40856 -1.46451 1 -7.33994 0.0244069 4
381 1 4.47701 0.896602 8.06631 4.23334 -1.97146 8.31207 1 -7.36134 0.0565775 4
382 1 6.20018 2.70845 8.04775 -7.72001 -8.65016 5.14962 1 -7.33867 0.100175 4
383 1 8.03732 0.917809 8.06547 -10.8341 1.74457 -2.38136 1 -7.33148 0.0784825 4
384 1 7.11232 3.5906 7.11308 -0.123936 3.83097 -1.71335 1 -7.31085 0.0109717 4
665 1 7.19039 0.00525747 7.15762 -2.97398 -1.5564 3.42005 1 -7.37219 0.0142932 4
386 1 9.80602 0.896635 6.28452 -2.20636 -1.33854 -7.54041 1 -7.34251 0.0395349 4
387 1 9.80315 2.65531 4.44384 -1.88947 -4.73859 -5.5767 1 -7.32394 0.0355554 4
388 1 10.6777 1.75488 5.3856 4.82322 0.695319 -4.25168 1 -7.35517 0.0260322 4
389 1 11.5877 0.853312 4.50778 2.57148 -1.13133 -8.50837 1 -7.34457 0.0499714 4
390 1 11.5786 2.68074 6.27127 1.90738 2.92421 -2.65098 1 -7.33333 0.011961 4
391 1 8.94948 3.5586 5.36436 -8.23189 -7.75724 5.59026 1 -7.31254 0.0990839 4
392 1 12.5194 3.56792 5.37096 2.13651 -2.80268 2.38402 1 -7.36032 0.0112679 4
393 1 8.95541 1.82068 7.18033 -5.22449 7.16197 1.31769 1 -7.35923 0.0499966 4
394 1 9.83008 2.71144 8.11369 -1.25497 -2.13712 -1.81664 1 -7.37854 0.00587721 4
395 1 12.4748 1.79405 7.12547 0.355378 2.81803 -2.459 1 -7.33149 0.00878508 4
396 1 11.5552 0.856342 8.01363 -1.89982 0.0818109 1.80689 1 -7.2868 0.00428283 4
397 1 10.7311 3.54527 7.19445 5.22069 -1.85072 7.70765 1 -7.348 0.0560735 4
398 1 13.3634 0.862433 6.26297 0.0955582 6.04491 -3.51451 1 -7.35491 0.0304378 4
399 1 13.3834 2.67333 4.48445 3.91467 -9.52265 -0.604656 1 -7.41471 0.0662082 4
400 1 14.2561 1.76325 5.35446 0.854576 4.09588 -4.69578 1 -7.30043 0.0246213 4
401 1 15.2242 0.927353 4.4972 3.09121 3.93216 -1.19428 1 -7.35165 0.0164593 4
402 1 15.1099 2.68082 6.2975 11.4518 -4.91623 0.366868 1 -7.24418 0.0967544 4
403 1 16.9194 0.9023 6.2989 0.72497 -3.18666 -2.09872 1 -7.30591 0.0093893 4
404 1 16.9575 2.71056 4.47353 1.13372 -3.95091 -4.22698 1 -7.36837 0.021637 4
405 1 16.0458 3.56225 5.38521 4.43141 0.400474 -3.19088 1 -7.36072 0.01866 4
406 1 13.3647 2.6426 8.07708 4.49586 4.47734 -1.25157 1 -7.3476 0.0260335 4
407 1 16.0494 1.75318 7.17312 2.41868 -3.7504 -2.22152 1 -7.28613 0.0154677 4
408 1 15.1528 0.884684 8.03664 4.72057 -1.30358 5.25461 1 -7.37184 0.0321134 4
409 1 16.9682 2.73311 8.07804 -2.47588 1.09235 -3.55945 1 -7.26577 0.0124441 4
410 1 14.269 3.58328 7.20072 -3.1934 -0.648384 10.3858 1 -7.31525 0.0737476 4
694 1 16.0948 -0.00121435 5.40766 -1.43649 -1.63862 -3.40455 1 -7.37554 0.0101702 4
412 1 17.8315 1.82717 5.34453 -3.57399 -1.89298 -4.80076 1 -7.30371 0.0245261 4
413 1 18.7459 0.905011 4.47015 6.71807 0.218224 2.06679 1 -7.25506 0.0307801 4
414 1 18.7432 2.67337 6.30362 0.58786 -8.80714 2.86143 1 -7.30276 0.0535904 4
415 1 20.5378 0.923981 6.31463 -2.57319 1.92386 -0.461269 1 -7.39516 0.00655746 4
416 1 20.5492 2.69929 4.47968 4.69421 1.93393 -7.95789 1 -7.36861 0.0554605 4
417 1 19.6285 3.58514 5.38361 3.12896 -1.25332 8.76926 1 -7.29426 0.0549361 4
418 1 19.6487 1.75766 7.18954 -0.780745 -0.555373 -2.93947 1 -7.3374 0.00594943 4
419 1 18.7026 0.899274 8.08937 -1.34558 3.45666 -1.36469 1 -7.39224 0.00972319 4
420 1 20.5274 2.72219 8.05649 -3.22283 -1.64659 -6.54366 1 -7.33252 0.0348044 4
421 1 17.8831 3.57906 7.18882 4.52549 2.62855 -3.84374 1 -7.38038 0.0262438 4
709 1 17.8489 0.00409941 7.20357 18.4617 -10.7001 6.63704 1 -7.30085 0.310826 4
423 1 0.933083 4.46824 4.51634 -2.78051 -5.27548 5.6299 1 -7.25864 0.0418629 4
424 1 0.888566 6.26332 6.29041 0.0075249 -3.26918 -1.69163 1 -7.32203 0.00843338 4
425 1 2.71236 4.46967 6.28152 -5.5727 -7.5767 11.2203 1 -7.39369 0.133421 4
426 1 2.70278 6.22148 4.48455 2.49369 1.03617 -7.42044 1 -7.26699 0.0388114 4
427 1 3.58251 5.37081 5.3784 -0.480751 -0.389952 -1.20635 1 -7.43899 0.00114431 4
428 1 1.7697 7.1584 5.40764 2.20202 4.29037 9.19453 1 -7.29511 0.0670947 4
429 1 0.904963 8.02927 4.44969 -3.40822 -2.82535 5.70689 1 -7.32075 0.0324702 4
430 1 2.67934 8.03823 6.2813 -8.36619 -5.6726 3.87129 1 -7.25309 0.0729224 4
431 1 1.79303 5.36584 7.19024 -3.97948 -3.37346 -2.23916 1 -7.27632 0.020061 4
432 1 0.83811 4.45645 8.08877 -3.27204 3.98375 -2.64174 1 -7.27994 0.0208857 4