ITEM: TIMESTEP
49126050
ITEM: NUMBER OF ATOMS
3060
ITEM: BOX BOUNDS pp pp mm
0.0000000000000000e+00 2.1394294200000001e+01
0.0000000000000000e+00 2.1394294200000001e+01
-5.3491084073550004e-03 5.3485735499999997e+01
ITEM: ATOMS id type x y z vx vy vz c_clusts c_atom_pe c_atom_ke c_atom_coord
1 1 0 0 0 0 0 0 1 -3.33521 0 2
2 1 1.78286 1.78286 0 0 0 0 1 -3.33378 0 2
3 1 0.891429 0.891429 0.891429 0 0 0 1 -7.0086 0 4
4 1 0.895638 2.64741 2.68003 2.54935 4.73876 -7.95639 1 -7.3632 0.0574245 4
5 1 2.71329 0.889725 2.71381 4.40742 5.0649 6.19679 1 -7.37395 0.0519594 4
6 1 2.67429 2.67429 0.891429 0 0 0 1 -7.00431 0 4
7 1 3.56572 0 0 0 0 0 1 -3.33059 0 2
8 1 3.56071 1.75571 1.79601 4.83199 5.33755 9.31929 1 -7.33892 0.0863223 4
9 1 0 3.56572 0 0 0 0 1 -3.34573 0 2
10 1 1.80151 3.5602 1.80399 3.60863 2.52062 5.01218 1 -7.33988 0.0276965 4
11 1 3.56572 3.56572 0 0 0 0 1 -3.33633 0 2
12 1 1.78163 1.80726 3.56133 -7.25521 -8.78809 1.15594 1 -7.37132 0.0816652 4
13 1 3.60705 3.51645 3.60963 -6.06485 8.69965 -5.06378 1 -7.19735 0.0859622 4
292 1 1.79587 0.00968006 1.77892 5.33631 -0.933388 -3.27153 1 -7.29415 0.0249284 4
56 1 -0.0361962 3.51821 3.57422 0.677509 -7.41568 -1.05025 1 -7.3648 0.035201 4
55 1 -0.00255402 1.77214 1.78974 2.76246 -8.72967 3.21089 1 -7.35422 0.0586002 4
291 1 3.56294 0.0184918 3.57264 4.07782 7.83988 -0.483734 1 -7.34129 0.0487524 4
350 1 0.0146405 0.0234813 3.55821 -6.08257 -7.23072 6.83011 1 -7.3492 0.0846072 4
14 1 5.34857 1.78286 0 0 0 0 1 -3.33411 0 2
15 1 4.45714 0.891429 0.891429 0 0 0 1 -7.03502 0 4
16 1 4.4712 2.64632 2.66855 2.2417 7.86203 -2.19888 1 -7.34114 0.0446104 4
17 1 6.26151 0.851964 2.66123 -8.23111 -2.75362 2.73335 1 -7.24679 0.0515398 4
18 1 6.24 2.67429 0.891429 0 0 0 1 -7.03977 0 4
19 1 7.13143 0 0 0 0 0 1 -3.33021 0 2
20 1 7.15501 1.7666 1.74996 -4.38882 -1.50078 2.95033 1 -7.36711 0.0188088 4
21 1 8.02286 0.891429 0.891429 0 0 0 1 -7.0037 0 4
22 1 8.06798 2.6393 2.67628 -7.80536 -3.03232 5.10587 1 -7.2971 0.0598702 4
23 1 5.35323 3.54077 1.75413 2.1884 4.33558 -5.41684 1 -7.39424 0.0329441 4
24 1 7.13143 3.56572 0 0 0 0 1 -3.33189 0 2
25 1 5.32073 1.76914 3.58823 -0.474481 5.43475 -10.4408 1 -7.28152 0.086375 4
26 1 7.159 3.56507 3.59075 6.92327 5.13436 5.79766 1 -7.30311 0.0671636 4
306 1 7.10125 -0.0356308 3.60867 1.47098 6.50586 -6.99905 1 -7.31956 0.0581824 4
28 1 8.91429 1.78286 0 0 0 0 1 -3.3325 0 2
29 1 9.75519 0.901948 2.71058 4.35634 8.52414 -3.84214 1 -7.2904 0.0662266 4
30 1 9.80572 2.67429 0.891429 0 0 0 1 -6.98235 0 4
31 1 10.6971 0 0 0 0 0 1 -3.33375 0 2
32 1 10.7078 1.78997 1.78899 3.89404 -0.967041 5.68466 1 -7.32889 0.0301342 4
33 1 12.48 1.78286 0 0 0 0 1 -3.33682 0 2
34 1 11.5886 0.891429 0.891429 0 0 0 1 -7.02477 0 4
35 1 11.6153 2.65358 2.66069 3.48727 -2.3591 2.22928 1 -7.37011 0.0141266 4
36 1 8.89539 3.58264 1.7703 0.0519536 6.0392 -0.437884 1 -7.32543 0.0228221 4
37 1 10.6971 3.56572 0 0 0 0 1 -3.32188 0 2
38 1 12.4895 3.56039 1.77609 -1.39587 -4.64007 -8.11635 1 -7.3446 0.0556162 4
39 1 8.93191 1.78197 3.57503 2.0366 5.2397 -5.84736 1 -7.39845 0.0409518 4
40 1 12.5001 1.77607 3.56841 -8.39229 2.12592 8.52093 1 -7.31021 0.091843 4
41 1 10.7002 3.53894 3.57309 -6.13012 -6.28695 -1.96976 1 -7.33356 0.0504066 4
319 1 10.6706 -0.00989469 3.57474 5.93053 8.90985 0.8148 1 -7.29849 0.0717163 4
42 1 13.3639 0.847774 2.6266 3.98317 -2.24008 0.29339 1 -7.30248 0.0130521 4
43 1 13.3714 2.67429 0.891429 0 0 0 1 -7.03545 0 4
44 1 14.2629 0 0 0 0 0 1 -3.32578 0 2
45 1 14.256 1.77884 1.77254 -4.77437 0.891445 -4.853 1 -7.4039 0.0293417 4
46 1 16.0457 1.78286 0 0 0 0 1 -3.33246 0 2
47 1 15.1543 0.891429 0.891429 0 0 0 1 -7.01417 0 4
48 1 15.1516 2.63278 2.64264 9.508 -0.291185 5.09837 1 -7.32593 0.0725003 4
49 1 16.9754 0.868625 2.66625 4.38566 -7.48461 4.58056 1 -7.32201 0.0598992 4
50 1 16.9371 2.67429 0.891429 0 0 0 1 -6.98565 0 4
51 1 14.2629 3.56572 0 0 0 0 1 -3.33739 0 2
52 1 16.0342 3.56459 1.76982 -6.86268 5.46776 -1.92617 1 -7.35946 0.0502317 4
53 1 16.069 1.72952 3.57126 6.50236 2.0051 -2.96162 1 -7.33665 0.0342784 4
54 1 14.2917 3.55393 3.56934 2.96113 6.20603 0.312956 1 -7.28847 0.0294912 4
336 1 14.2058 -0.0188342 3.58661 2.45893 -1.76177 1.60917 1 -7.27035 0.00730705 4
57 1 17.8286 0 0 0 0 0 1 -3.34277 0 2
58 1 17.8787 1.77224 1.79315 1.77017 -9.6583 -4.63334 1 -7.36265 0.0733742 4
59 1 19.6114 1.78286 0 0 0 0 1 -3.31562 0 2
60 1 18.72 0.891429 0.891429 0 0 0 1 -7.01755 0 4
61 1 18.7437 2.65141 2.68088 -10.2428 1.27462 -0.226576 1 -7.36818 0.0663449 4
62 1 20.5036 0.878594 2.69109 0.386971 -4.15499 -1.63015 1 -7.34818 0.0124927 4
63 1 20.5029 2.67429 0.891429 0 0 0 1 -7.02184 0 4
64 1 17.8286 3.56572 0 0 0 0 1 -3.32334 0 2
65 1 19.6033 3.5564 1.75707 -3.40281 -1.35557 2.93081 1 -7.32072 0.0136973 4
66 1 19.6358 1.7501 3.58002 0.529739 -1.47751 -1.81942 1 -7.34871 0.00359385 4
67 1 17.8546 3.54784 3.5748 -5.11674 -1.64598 2.65559 1 -7.34031 0.0223715 4
68 1 19.6238 0.0193087 1.76133 -2.20862 2.27498 -2.1201 1 -7.35632 0.00905528 4
349 1 17.8168 -0.0132829 3.57993 -1.36139 -1.07742 -0.783484 1 -7.35954 0.0022582 4
69 1 1.78286 5.34857 0 0 0 0 1 -3.33428 0 2
70 1 0.891429 4.45714 0.891429 0 0 0 1 -7.00264 0 4
71 1 0.891562 6.25591 2.70768 -8.00059 9.37736 2.22498 1 -7.35154 0.0976555 4
72 1 2.71347 4.45936 2.6815 -0.805793 3.14234 -8.46461 1 -7.31279 0.0511467 4
73 1 2.67429 6.24 0.891429 0 0 0 1 -6.97717 0 4
74 1 3.59717 5.31709 1.78262 -1.5691 7.35522 0.258856 1 -7.34194 0.0352469 4
75 1 0 7.13143 0 0 0 0 1 -3.34545 0 2
76 1 1.79745 7.12065 1.82359 6.10454 7.95781 7.72525 1 -7.33868 0.0997573 4
77 1 0.891429 8.02286 0.891429 0 0 0 1 -6.99129 0 4
78 1 2.66768 8.01151 2.67163 -2.45692 -7.32881 4.73118 1 -7.35176 0.0511211 4
79 1 3.56572 7.13143 0 0 0 0 1 -3.33203 0 2
80 1 1.8087 5.34216 3.58413 2.41564 -0.633499 2.36906 1 -7.32462 0.00737519 4
81 1 3.54693 7.10771 3.58405 1.54007 -5.61542 -2.63497 1 -7.36082 0.0254247 4
128 1 0.012828 5.35579 1.79435 7.29698 3.29168 8.24621 1 -7.35055 0.0822107 4
82 1 -0.0499143 7.119 3.57468 3.04697 -0.0917529 -2.45626 1 -7.33242 0.0095391 4
83 1 5.34857 5.34857 0 0 0 0 1 -3.33806 0 2
84 1 4.45714 4.45714 0.891429 0 0 0 1 -7.05457 0 4
85 1 4.4419 6.27506 2.67299 2.09901 7.80587 -0.41731 1 -7.3257 0.0407761 4
86 1 6.24843 4.43636 2.67794 -1.77998 -7.72816 1.11257 1 -7.34842 0.0399165 4
87 1 6.24 6.24 0.891429 0 0 0 1 -7.01398 0 4
88 1 7.14751 5.32127 1.80379 -1.70721 -8.02605 10.4898 1 -7.33802 0.110398 4
89 1 8.02286 4.45714 0.891429 0 0 0 1 -7.0512 0 4
90 1 8.0528 6.22457 2.70329 -7.61762 0.221635 3.23744 1 -7.2605 0.0426724 4
91 1 5.36468 7.13545 1.77641 -4.99328 -2.2943 -0.750284 1 -7.38478 0.0191456 4
92 1 4.45714 8.02286 0.891429 0 0 0 1 -7.00215 0 4
93 1 6.22399 8.00999 2.65421 8.49564 1.28022 5.43008 1 -7.4096 0.064297 4
94 1 7.13143 7.13143 0 0 0 0 1 -3.32427 0 2
95 1 8.02286 8.02286 0.891429 0 0 0 1 -6.97167 0 4
96 1 5.35057 5.34849 3.55414 -7.92649 -5.48382 6.88287 1 -7.32352 0.0873112 4
97 1 7.10112 7.17729 3.57313 -1.35748 0.85346 -4.66684 1 -7.28299 0.0151564 4
98 1 8.91429 5.34857 0 0 0 0 1 -3.35131 0 2
99 1 9.80899 4.44578 2.69187 2.1153 2.01683 0.977593 1 -7.32704 0.00591167 4
100 1 9.80572 6.24 0.891429 0 0 0 1 -6.98945 0 4
101 1 10.6595 5.36274 1.79614 0.960836 2.66589 3.46384 1 -7.33882 0.0124662 4
102 1 12.48 5.34857 0 0 0 0 1 -3.33637 0 2
103 1 11.5886 4.45714 0.891429 0 0 0 1 -6.98033 0 4
104 1 11.5524 6.2166 2.71686 -2.03236 3.44786 -3.2416 1 -7.23904 0.0165106 4
105 1 8.91401 7.15578 1.83586 1.7267 4.14271 -2.07604 1 -7.30405 0.0152205 4
106 1 9.8331 8.07741 2.69942 -5.04726 -2.87713 11.1731 1 -7.33058 0.0987117 4
107 1 10.6971 7.13143 0 0 0 0 1 -3.37231 0 2
108 1 12.4681 7.15822 1.77995 -4.24028 4.10674 -3.04004 1 -7.26628 0.027441 4
109 1 11.5886 8.02286 0.891429 0 0 0 1 -7.02379 0 4
110 1 8.9528 5.34308 3.62561 0.211568 10.2465 0.337202 1 -7.34265 0.0654475 4
111 1 12.4939 5.29697 3.6009 0.214203 2.08887 -1.81932 1 -7.35265 0.00480462 4
112 1 10.7174 7.17111 3.57521 -0.711218 -3.29869 0.759915 1 -7.32596 0.00744713 4
113 1 13.3692 4.50958 2.68642 0.581003 1.99673 -4.69648 1 -7.2966 0.0164205 4
114 1 13.3714 6.24 0.891429 0 0 0 1 -6.97722 0 4
115 1 14.2934 5.34327 1.77804 4.77742 -3.96674 13.4236 1 -7.38955 0.136158 4
116 1 16.0457 5.34857 0 0 0 0 1 -3.34311 0 2
117 1 15.1543 4.45714 0.891429 0 0 0 1 -7.07019 0 4
118 1 15.1202 6.24227 2.67673 2.35649 -2.1181 -2.72172 1 -7.3163 0.0108596 4
119 1 16.9249 4.45551 2.70922 -3.70058 4.99929 -5.37896 1 -7.31405 0.0420887 4
120 1 16.9371 6.24 0.891429 0 0 0 1 -7.01912 0 4
121 1 13.3747 8.04503 2.69567 -2.57645 7.28049 0.188134 1 -7.35414 0.0371458 4
122 1 14.2629 7.13143 0 0 0 0 1 -3.32035 0 2
123 1 16.0771 7.14851 1.75193 2.7212 -4.50528 -4.58589 1 -7.29151 0.0303326 4
124 1 15.1543 8.02286 0.891429 0 0 0 1 -7.01067 0 4
125 1 16.9662 7.9977 2.61638 -2.00545 6.73455 3.09412 1 -7.33552 0.0366918 4
126 1 16.0918 5.39395 3.54387 2.67688 -5.99192 4.72028 1 -7.29385 0.0406755 4
127 1 14.2657 7.15054 3.57473 -7.31159 7.29774 -4.34152 1 -7.40541 0.078155 4
129 1 17.8368 5.35398 1.80348 -0.945084 -1.55424 7.86724 1 -7.28375 0.0405837 4
130 1 19.6114 5.34857 0 0 0 0 1 -3.32432 0 2
131 1 18.72 4.45714 0.891429 0 0 0 1 -7.03731 0 4
132 1 18.7327 6.21574 2.71613 -2.71325 0.346957 0.952192 1 -7.33218 0.00522141 4
133 1 20.513 4.44609 2.68917 1.11141 -2.35836 3.11701 1 -7.3698 0.010278 4
134 1 20.5029 6.24 0.891429 0 0 0 1 -6.98898 0 4
135 1 17.8286 7.13143 0 0 0 0 1 -3.30939 0 2
136 1 19.5607 7.11711 1.7808 -1.79438 -4.98645 5.44984 1 -7.32924 0.0359671 4
137 1 18.72 8.02286 0.891429 0 0 0 1 -7.02987 0 4
138 1 20.4882 7.96974 2.6993 3.51674 -3.32831 0.405704 1 -7.27636 0.0146953 4
139 1 19.6044 5.32279 3.54211 -8.79656 -1.68945 -0.798934 1 -7.38931 0.0503368 4
140 1 17.822 7.10143 3.56833 -5.80134 -10.0923 -1.90239 1 -7.30134 0.0865978 4
141 1 1.78286 8.91429 0 0 0 0 1 -3.32497 0 2
142 1 0.913873 9.79105 2.71702 -1.67814 2.38119 -3.76555 1 -7.28307 0.0141077 4
143 1 2.67429 9.80572 0.891429 0 0 0 1 -7.04666 0 4
144 1 3.54667 8.92217 1.76241 3.34891 -4.36435 3.02049 1 -7.39884 0.024515 4
145 1 0 10.6971 0 0 0 0 1 -3.3336 0 2
146 1 1.76543 10.6808 1.73849 1.18982 -3.39107 5.58095 1 -7.33335 0.0274254 4
147 1 1.78286 12.48 0 0 0 0 1 -3.31837 0 2
148 1 0.891429 11.5886 0.891429 0 0 0 1 -7.01789 0 4
149 1 2.66361 11.5959 2.63052 -4.94421 2.99019 1.27124 1 -7.30224 0.0217865 4
150 1 3.56572 10.6971 0 0 0 0 1 -3.31944 0 2
151 1 3.52208 12.5084 1.7636 6.11846 8.22228 0.830473 1 -7.37737 0.0658098 4
152 1 1.79955 8.90381 3.52924 -0.604343 -4.88728 -5.36637 1 -7.37691 0.0330189 4
153 1 1.77361 12.493 3.5577 -9.77666 -0.765007 2.73973 1 -7.33809 0.0645297 4
154 1 3.54632 10.7185 3.54878 -1.45635 0.533045 8.80762 1 -7.38758 0.0497812 4
205 1 0.021523 8.88733 1.77539 7.79864 -5.71945 -1.6322 1 -7.26824 0.0598743 4
204 1 0.0274687 12.5029 1.75508 12.8013 -1.76385 -1.01066 1 -7.37429 0.104571 4
155 1 5.34857 8.91429 0 0 0 0 1 -3.31047 0 2
156 1 4.41579 9.77218 2.66309 -0.0515553 0.567564 2.23818 1 -7.33255 0.00332018 4
157 1 6.24 9.80572 0.891429 0 0 0 1 -7.03859 0 4
158 1 7.06715 8.89715 1.77598 13.1886 3.936 -1.9259 1 -7.33134 0.120216 4
159 1 7.99386 9.78888 2.6487 -0.471072 4.05458 8.56336 1 -7.31826 0.0560138 4
160 1 5.35317 10.667 1.77788 -7.39347 0.730629 -2.66843 1 -7.32131 0.0387882 4
161 1 5.34857 12.48 0 0 0 0 1 -3.34519 0 2
162 1 4.45714 11.5886 0.891429 0 0 0 1 -6.94818 0 4
163 1 6.21354 11.6021 2.6755 -4.08488 -2.88236 0.464656 1 -7.33682 0.0156915 4
164 1 7.13143 10.6971 0 0 0 0 1 -3.3593 0 2
165 1 7.11586 12.5048 1.77951 0.717163 1.08967 -7.39427 1 -7.35705 0.0350905 4
166 1 8.02286 11.5886 0.891429 0 0 0 1 -7.0244 0 4
167 1 5.30715 8.93225 3.5425 1.20695 -3.10432 -8.41779 1 -7.33176 0.0510095 4
168 1 5.32143 12.4846 3.54328 4.56471 1.47725 -1.24394 1 -7.34187 0.0152907 4
169 1 7.10569 10.7263 3.54068 2.41312 -2.60253 -6.58383 1 -7.33344 0.0348204 4
170 1 8.91429 8.91429 0 0 0 0 1 -3.35974 0 2
171 1 9.80572 9.80572 0.891429 0 0 0 1 -6.88771 0 4
172 1 10.7827 8.94139 1.81449 4.27449 -4.70723 3.35944 1 -7.31098 0.0321889 4
173 1 12.48 8.91429 0 0 0 0 1 -3.32148 0 2
174 1 11.6422 9.83617 2.69095 -1.80237 1.15672 -1.98563 1 -7.40451 0.00530886 4
175 1 8.86916 10.7388 1.78173 -4.07851 -1.94089 0.444696 1 -7.28705 0.0128214 4
176 1 8.91429 12.48 0 0 0 0 1 -3.33513 0 2
177 1 9.83795 11.6089 2.67369 -2.05902 0.829068 -0.470544 1 -7.32495 0.00320446 4
178 1 10.6971 10.6971 0 0 0 0 1 -3.3264 0 2
179 1 10.7303 12.5183 1.76631 -6.8612 6.16132 3.13643 1 -7.32953 0.0590528 4
180 1 12.4846 10.723 1.79038 -2.7126 0.107339 -0.0663306 1 -7.37406 0.00458984 4
181 1 12.48 12.48 0 0 0 0 1 -3.32503 0 2
182 1 11.5886 11.5886 0.891429 0 0 0 1 -7.0388 0 4
183 1 8.91414 8.94268 3.55242 2.33117 1.73248 -1.97865 1 -7.36143 0.00768754 4
184 1 12.4918 8.96076 3.60332 0.257171 -0.570543 -6.64186 1 -7.3679 0.0277017 4
185 1 8.93524 12.4988 3.55584 2.76761 -4.15764 1.09312 1 -7.35022 0.0162705 4
186 1 10.7271 10.705 3.55216 -1.23205 1.64397 3.05917 1 -7.39205 0.00845199 4
187 1 12.4992 12.4982 3.55004 -4.10794 -8.76283 -6.54608 1 -7.30227 0.0849696 4
188 1 13.3714 9.80572 0.891429 0 0 0 1 -6.99921 0 4
189 1 14.2471 8.91728 1.76671 0.651712 3.14814 -2.63916 1 -7.33656 0.0107684 4
190 1 16.0457 8.91429 0 0 0 0 1 -3.33106 0 2
191 1 15.1869 9.86275 2.62711 -1.69749 3.92528 1.60594 1 -7.25275 0.012989 4
192 1 16.9371 9.80572 0.891429 0 0 0 1 -7.01866 0 4
193 1 13.3979 11.6207 2.66035 0.222087 1.44036 3.10249 1 -7.34848 0.00731311 4
194 1 14.2629 10.6971 0 0 0 0 1 -3.35083 0 2
195 1 14.2575 12.5146 1.79959 6.15141 -1.82319 4.19771 1 -7.38462 0.0365891 4
196 1 16.0869 10.7554 1.77152 -5.5796 0.720846 -2.89725 1 -7.34467 0.0249254 4
197 1 16.0457 12.48 0 0 0 0 1 -3.30132 0 2
198 1 15.1543 11.5886 0.891429 0 0 0 1 -6.97616 0 4
199 1 16.9504 11.5868 2.68134 -3.8903 6.99515 -6.66824 1 -7.33007 0.0675532 4
200 1 16.0312 8.94919 3.53235 3.07696 8.692 -7.84895 1 -7.24524 0.0912629 4
201 1 14.2663 10.7091 3.58569 -8.92339 2.72237 -4.30297 1 -7.3729 0.0656994 4
202 1 16.0181 12.4666 3.60412 -3.77873 -4.49264 0.693497 1 -7.339 0.0217498 4
203 1 21.3963 10.6797 3.59591 -9.21551 -1.78146 0.779936 1 -7.39334 0.0552138 4
206 1 17.8245 8.90736 1.77848 -1.02741 -6.47096 -1.40228 1 -7.31614 0.027944 4
207 1 19.6114 8.91429 0 0 0 0 1 -3.34267 0 2
208 1 18.7594 9.7953 2.70447 -6.11703 -6.5257 -2.01984 1 -7.32013 0.0523352 4
209 1 20.5029 9.80572 0.891429 0 0 0 1 -6.9552 0 4
210 1 17.8286 10.6971 0 0 0 0 1 -3.30974 0 2
211 1 17.8339 12.4319 1.77396 1.28611 1.48944 5.98243 1 -7.30542 0.0246866 4
212 1 19.5828 10.6967 1.82783 -2.15586 -1.60578 -2.89354 1 -7.35085 0.00970912 4
213 1 19.6114 12.48 0 0 0 0 1 -3.36573 0 2
214 1 18.72 11.5886 0.891429 0 0 0 1 -7.04129 0 4
215 1 20.5183 11.56 2.66688 -0.983523 -8.57888 -2.50901 1 -7.29687 0.0503292 4
216 1 19.6331 8.86053 3.60817 -5.49563 -5.43585 -5.52324 1 -7.34108 0.0561781 4
217 1 17.7976 10.6674 3.60821 4.55261 0.457902 -4.46732 1 -7.29314 0.0254528 4
218 1 19.6153 12.4703 3.5629 3.56081 0.344879 -3.09354 1 -7.26766 0.0139226 4
219 1 0.907196 13.3514 2.62942 -2.23913 0.159917 -2.34151 1 -7.36598 0.00654915 4
220 1 2.67429 13.3714 0.891429 0 0 0 1 -7.01372 0 4
221 1 0 14.2629 0 0 0 0 1 -3.30641 0 2
222 1 1.78312 14.256 1.76239 4.47322 -4.05146 -1.2974 1 -7.40489 0.0237189 4
223 1 1.78286 16.0457 0 0 0 0 1 -3.31989 0 2
224 1 0.891429 15.1543 0.891429 0 0 0 1 -7.0347 0 4
225 1 0.886142 16.925 2.67437 1.61522 -0.231862 -2.3995 1 -7.34942 0.00524099 4
226 1 2.67583 15.1144 2.64902 -3.4734 4.81439 -3.79559 1 -7.32319 0.0309031 4
227 1 2.67429 16.9371 0.891429 0 0 0 1 -6.94941 0 4
228 1 3.56572 14.2629 0 0 0 0 1 -3.34891 0 2
229 1 3.59182 16.0004 1.81165 0.468883 -8.92286 2.45125 1 -7.30029 0.0534327 4
230 1 1.79637 16.0363 3.57894 1.95497 -3.76424 -1.42247 1 -7.33953 0.0124577 4
231 1 3.59198 14.2963 3.56321 3.10042 6.86829 3.95232 1 -7.29222 0.0450679 4
233 1 0.00165081 16.0259 1.74474 5.61077 3.34795 0.886365 1 -7.35348 0.0270601 4
232 1 0.0317385 14.2564 3.51818 3.91054 3.16813 12.5464 1 -7.25498 0.113744 4
234 1 4.44461 13.3858 2.63184 -9.17201 0.50968 0.744063 1 -7.31429 0.0528684 4
235 1 6.24 13.3714 0.891429 0 0 0 1 -7.0216 0 4
236 1 7.99062 13.3697 2.65557 3.88763 -0.21548 2.11159 1 -7.34142 0.0122113 4
237 1 5.38069 14.2712 1.78976 -3.27874 1.75344 0.473254 1 -7.30207 0.00874427 4
238 1 5.34857 16.0457 0 0 0 0 1 -3.33651 0 2
239 1 4.45714 15.1543 0.891429 0 0 0 1 -6.97733 0 4
240 1 4.45358 16.9266 2.64291 -4.01515 4.1804 0.208275 1 -7.35114 0.0209388 4
241 1 6.26811 15.1903 2.66546 9.1638 -4.72017 -2.11682 1 -7.34044 0.068925 4
242 1 6.24 16.9371 0.891429 0 0 0 1 -6.99836 0 4
243 1 7.13143 14.2629 0 0 0 0 1 -3.33553 0 2
244 1 7.16505 16.0617 1.78069 -3.33229 1.47376 -4.0419 1 -7.41492 0.018432 4
245 1 8.02286 15.1543 0.891429 0 0 0 1 -7.03459 0 4
246 1 8.03359 16.9187 2.63582 -7.24051 -3.71691 0.24757 1 -7.32834 0.0412679 4
247 1 5.3112 16.0472 3.5319 0.685951 -3.13315 -5.24451 1 -7.33641 0.0235228 4
248 1 7.1161 14.2662 3.5836 -4.54019 1.26253 -2.14441 1 -7.32116 0.0166846 4
249 1 9.80572 13.3714 0.891429 0 0 0 1 -6.97142 0 4
250 1 11.5727 13.441 2.6891 -3.22638 9.48658 -4.40457 1 -7.25961 0.0745697 4
251 1 8.86405 14.275 1.78163 0.115345 -6.55664 0.696986 1 -7.37095 0.0270684 4
252 1 8.91429 16.0457 0 0 0 0 1 -3.33722 0 2
253 1 9.78042 15.1104 2.65743 -1.36643 -3.38465 -0.0905829 1 -7.2286 0.00829768 4
254 1 9.80572 16.9371 0.891429 0 0 0 1 -7.01922 0 4
255 1 10.6971 14.2629 0 0 0 0 1 -3.32857 0 2
256 1 10.6919 16.06 1.78142 -9.40072 -0.691429 -2.14305 1 -7.34226 0.0581622 4
257 1 12.4695 14.3012 1.77241 -0.125521 1.38086 5.47583 1 -7.35083 0.0198599 4
258 1 12.48 16.0457 0 0 0 0 1 -3.32208 0 2
259 1 11.5886 15.1543 0.891429 0 0 0 1 -7.01284 0 4
260 1 11.5633 16.9478 2.65788 8.52977 -0.195059 -5.19541 1 -7.30957 0.0621102 4
261 1 8.93579 16.0265 3.57121 1.05819 3.31596 2.08364 1 -7.25164 0.0102432 4
262 1 10.6809 14.2624 3.65008 -4.07362 4.05562 -7.36662 1 -7.28613 0.0543437 4
263 1 12.5034 16.0188 3.55225 -6.23943 -2.05097 -7.67132 1 -7.33864 0.0634788 4
264 1 13.3714 13.3714 0.891429 0 0 0 1 -7.02831 0 4
265 1 15.1628 13.3338 2.68126 -2.35643 -0.382956 -6.5025 1 -7.31363 0.0298652 4
266 1 16.9371 13.3714 0.891429 0 0 0 1 -6.9583 0 4
267 1 13.3757 15.146 2.64383 0.732819 -2.49507 -3.16529 1 -7.33062 0.0104452 4
268 1 13.3714 16.9371 0.891429 0 0 0 1 -7.04072 0 4
269 1 14.2629 14.2629 0 0 0 0 1 -3.32625 0 2
270 1 14.2694 16.0294 1.744 -6.58993 -0.471916 4.91282 1 -7.35748 0.0421916 4
271 1 16.0387 14.2803 1.81965 1.46103 -2.18618 -2.7873 1 -7.35043 0.00913911 4
272 1 16.0457 16.0457 0 0 0 0 1 -3.34345 0 2
273 1 15.1543 15.1543 0.891429 0 0 0 1 -7.03129 0 4
274 1 15.1477 16.9148 2.6968 0.739956 3.75404 -2.04847 1 -7.23017 0.0117244 4
275 1 16.8992 15.1476 2.7093 4.68562 -3.59369 1.34241 1 -7.36681 0.0228254 4
276 1 16.9371 16.9371 0.891429 0 0 0 1 -7.04919 0 4
277 1 14.2535 14.2716 3.60604 -5.00007 -3.43998 -0.69285 1 -7.29505 0.0232253 4
278 1 16.0338 16.0389 3.64119 -4.40192 4.51511 6.57719 1 -7.33305 0.0516754 4
279 1 18.7099 13.3806 2.6904 5.32797 6.43382 -1.07734 1 -7.33056 0.0441562 4
280 1 20.5029 13.3714 0.891429 0 0 0 1 -7.01248 0 4
281 1 17.8286 14.2629 0 0 0 0 1 -3.33752 0 2
282 1 17.7939 16.059 1.77846 6.4824 6.64754 3.22445 1 -7.34316 0.0601316 4
283 1 19.6188 14.2802 1.79376 -1.93798 9.3137 -3.47429 1 -7.37844 0.0638431 4
284 1 19.6114 16.0457 0 0 0 0 1 -3.31618 0 2
285 1 18.72 15.1543 0.891429 0 0 0 1 -6.99185 0 4
286 1 18.7254 16.9164 2.65501 -5.72109 -1.39335 -2.67085 1 -7.34165 0.026021 4
287 1 20.5162 15.1275 2.61645 -2.59339 10.7394 -0.708523 1 -7.3364 0.0762861 4
288 1 20.5029 16.9371 0.891429 0 0 0 1 -7.03621 0 4
289 1 17.7951 14.2363 3.57688 2.43387 0.772429 1.41074 1 -7.32259 0.00529719 4
290 1 19.6313 16.0498 3.56773 4.64852 -5.13217 -7.80143 1 -7.29548 0.0677264 4
293 1 0 17.8286 0 0 0 0 1 -3.3248 0 2
294 1 1.75191 17.8243 1.77787 -1.0328 5.16645 -4.70753 1 -7.33955 0.0310713 4
295 1 1.78286 19.6114 0 0 0 0 1 -3.34332 0 2
296 1 0.891429 18.72 0.891429 0 0 0 1 -7.02695 0 4
297 1 0.848385 20.5189 2.66633 -3.06803 2.89653 1.16442 1 -7.31667 0.0119248 4
298 1 2.65048 18.7439 2.68946 -4.01735 -5.40833 -15.8783 1 -7.38284 0.185177 4
299 1 2.67429 20.5029 0.891429 0 0 0 1 -7.03621 0 4
300 1 3.56572 17.8286 0 0 0 0 1 -3.32188 0 2
301 1 3.51312 19.6198 1.76958 0.232294 7.76294 9.44302 1 -7.31927 0.0930451 4
302 1 1.77834 19.5984 3.53344 -2.19028 -1.86334 -5.42733 1 -7.29558 0.0234812 4
303 1 3.56519 17.8696 3.53828 3.20421 -8.28695 -11.1645 1 -7.33295 0.126717 4
305 1 -0.0367009 19.6031 1.76606 5.07731 1.02099 4.88515 1 -7.38767 0.0315484 4
27 1 5.33341 21.3871 1.7618 1.3723 1.18078 -2.90505 1 -7.35921 0.00729284 4
307 1 5.33715 17.8345 1.73852 0.765008 6.0011 1.73325 1 -7.37271 0.0246497 4
308 1 5.34857 19.6114 0 0 0 0 1 -3.32806 0 2
309 1 4.45714 18.72 0.891429 0 0 0 1 -7.01367 0 4
310 1 4.47149 20.5096 2.65401 -8.31123 -2.82778 8.07642 1 -7.34473 0.0885722 4
311 1 6.25865 18.6902 2.66366 -5.01711 3.57444 0.887297 1 -7.30142 0.0241099 4
312 1 6.24 20.5029 0.891429 0 0 0 1 -7.00374 0 4
313 1 7.13143 17.8286 0 0 0 0 1 -3.31929 0 2
314 1 7.13943 19.6074 1.79728 3.81814 2.49133 -0.231339 1 -7.35649 0.0129704 4
315 1 8.02286 18.72 0.891429 0 0 0 1 -6.99463 0 4
316 1 8.00034 20.4683 2.66104 -3.90614 5.13814 0.5055 1 -7.303 0.0260884 4
317 1 5.32986 19.6283 3.53948 -5.64521 -1.1972 5.33038 1 -7.2808 0.0384128 4
318 1 7.18161 17.8109 3.58274 6.3792 5.68076 -8.53443 1 -7.33821 0.0907508 4
320 1 8.90942 21.3807 1.77134 -4.59571 0.764576 1.37914 1 -7.356 0.0146937 4
321 1 12.4581 21.3695 1.77347 1.48525 1.39089 -2.55323 1 -7.40696 0.00663476 4
322 1 8.91303 17.8206 1.78173 -9.21787 -2.19103 -3.9482 1 -7.35989 0.0655776 4
323 1 8.91429 19.6114 0 0 0 0 1 -3.32884 0 2
324 1 9.77775 18.7418 2.6731 -4.22614 7.71923 4.29769 1 -7.37316 0.0597012 4
325 1 9.80572 20.5029 0.891429 0 0 0 1 -7.05207 0 4
326 1 10.6971 17.8286 0 0 0 0 1 -3.32595 0 2
327 1 10.6672 19.622 1.75762 -1.35799 -0.101198 -3.15566 1 -7.3569 0.00735245 4
328 1 12.496 17.8215 1.77561 -2.54215 4.19784 -6.13694 1 -7.39515 0.0384325 4
329 1 12.48 19.6114 0 0 0 0 1 -3.3225 0 2
330 1 11.5886 18.72 0.891429 0 0 0 1 -6.9807 0 4
331 1 11.6025 20.4834 2.64005 -4.08414 0.050248 2.85196 1 -7.32458 0.0154464 4
332 1 8.94509 19.6053 3.57685 3.71288 -0.231534 -1.25057 1 -7.33053 0.00958724 4
333 1 10.6714 17.8524 3.54172 -10.3522 -3.55331 -4.37298 1 -7.39727 0.086466 4
334 1 12.4593 19.6248 3.58364 2.70088 0.00169701 0.799619 1 -7.35876 0.00493842 4
335 1 16.0508 21.3831 1.76161 0.0290455 0.103287 2.72137 1 -7.37268 0.00461675 4
337 1 13.3659 18.7149 2.63746 -4.79817 -7.23308 0.253561 1 -7.30954 0.0469336 4
338 1 13.3714 20.5029 0.891429 0 0 0 1 -7.00747 0 4
339 1 14.2629 17.8286 0 0 0 0 1 -3.33593 0 2
340 1 14.2768 19.6286 1.76578 -3.73433 -2.25892 -3.88411 1 -7.35259 0.021246 4
341 1 16.0888 17.8329 1.76297 -4.58991 -1.99561 0.829426 1 -7.30833 0.0160198 4
342 1 16.0457 19.6114 0 0 0 0 1 -3.31629 0 2
343 1 15.1543 18.72 0.891429 0 0 0 1 -6.99952 0 4
344 1 15.1804 20.4882 2.66591 -0.45339 4.80925 2.41764 1 -7.32031 0.018162 4
345 1 16.9425 18.7106 2.67567 1.01483 -0.308354 -3.19443 1 -7.35756 0.0070517 4
346 1 16.9371 20.5029 0.891429 0 0 0 1 -6.99102 0 4
347 1 14.263 17.8541 3.57285 -5.81678 9.71269 6.03095 1 -7.35152 0.102416 4
348 1 16.0487 19.6076 3.55778 -4.17557 0.361494 0.807104 1 -7.37228 0.011339 4
304 1 21.3791 17.8147 3.57455 2.99903 5.65914 -1.12093 1 -7.27919 0.0263141 4
351 1 17.8286 17.8286 0 0 0 0 1 -3.32689 0 2
352 1 17.8532 19.6223 1.79233 -5.9562 0.373923 -6.67347 1 -7.36495 0.0498883 4
353 1 19.6105 17.7805 1.77954 -1.40185 5.43227 2.60775 1 -7.36711 0.0238234 4
354 1 19.6114 19.6114 0 0 0 0 1 -3.32901 0 2
355 1 18.72 18.72 0.891429 0 0 0 1 -6.98423 0 4
356 1 18.6969 20.527 2.66348 -0.702264 -1.85778 -9.10371 1 -7.29788 0.0540404 4
357 1 20.4766 18.7313 2.63403 -3.27812 -2.59319 -5.79418 1 -7.29435 0.0317706 4
358 1 20.5029 20.5029 0.891429 0 0 0 1 -7.02237 0 4
359 1 17.8222 17.8173 3.58524 -1.9499 6.91332 -6.94554 1 -7.35243 0.0621409 4
360 1 19.6178 19.6361 3.5877 0.330532 2.57146 -6.56613 1 -7.3373 0.0310191 4
361 1 0.865721 0.937753 4.44898 -5.5704 -1.57045 4.58522 1 -7.38353 0.0339346 4
362 1 0.864762 2.63898 6.24571 -1.59256 3.15944 -0.960612 1 -7.30741 0.00836607 4
363 1 2.64537 0.875615 6.24208 -0.761895 -1.94472 1.3936 1 -7.34314 0.00392411 4
364 1 2.64895 2.65896 4.48037 -7.85338 -17.2979 -3.23008 1 -7.34965 0.231124 4
365 1 3.52145 1.80882 5.35098 -6.61621 -1.97537 -2.72902 1 -7.29033 0.0343105 4
366 1 1.78462 3.5917 5.38065 1.57057 -0.757664 -7.19384 1 -7.3573 0.0341041 4
367 1 1.74509 1.75645 7.17784 -3.44802 -3.75658 -0.841291 1 -7.29307 0.0166241 4
368 1 0.849336 0.885453 8.08574 2.48074 -0.605792 -0.0323528 1 -7.34317 0.00405952 4
369 1 2.59455 2.70849 8.05121 -4.28977 -1.0285 0.150396 1 -7.27613 0.0121265 4
370 1 3.55719 3.62146 7.12506 2.23877 2.84239 0.856401 1 -7.19952 0.00860485 4
411 1 -0.0132155 1.78108 5.3404 -1.59859 -1.13672 2.05417 1 -7.43541 0.00502126 4
371 1 0.052021 3.54255 7.14882 -3.4653 -0.154759 -2.36585 1 -7.30843 0.0109731 4
651 1 3.55597 0.0352444 7.1415 -11.8508 4.17102 -2.26587 1 -7.35749 0.101439 4
710 1 -0.00576945 0.0151999 7.17428 2.92675 1.5583 0.837448 1 -7.31441 0.0072796 4
652 1 1.76732 0.0342083 5.32627 6.13354 -3.26559 1.42301 1 -7.35144 0.0313139 4
372 1 4.45217 0.864409 4.46093 -3.55591 -3.34769 6.91078 1 -7.31584 0.0445722 4
373 1 4.48281 2.66103 6.2316 2.06978 4.20001 -1.42346 1 -7.27854 0.0149073 4
374 1 6.20326 0.887922 6.31221 -5.97481 -1.3095 1.07627 1 -7.3319 0.0240079 4
375 1 6.22401 2.66145 4.49027 -5.43824 10.0333 -0.373108 1 -7.32085 0.0811526 4
376 1 7.10143 1.73472 5.34453 7.38357 2.32141 0.189329 1 -7.28724 0.0373094 4
377 1 7.9964 0.858204 4.4463 -6.11662 -1.8019 6.6195 1 -7.31722 0.0525812 4
378 1 8.0271 2.62369 6.24239 2.49613 -3.28147 -6.96045 1 -7.30269 0.0407357 4
379 1 5.37424 3.58203 5.42323 1.74386 0.339215 -5.25333 1 -7.31188 0.0191418 4
380 1 5.36021 1.8032 7.196 -3.71248 4.696 -0.227428 1 -7.35438 0.0223368 4
381 1 4.42647 0.908118 8.09138 -0.994075 6.14716 0.309389 1 -7.35371 0.0241946 4
382 1 6.20838 2.67006 8.09744 -4.30073 -5.04152 2.54574 1 -7.39154 0.0313665 4
383 1 8.02622 0.837393 8.05468 5.57023 0.128234 -3.60731 1 -7.37357 0.027422 4
384 1 7.1324 3.53768 7.19101 1.46867 -4.95322 -2.10813 1 -7.32573 0.0193796 4
665 1 7.14852 -0.00575003 7.16271 -0.597992 -1.66433 2.65509 1 -7.34213 0.00633447 4
386 1 9.81541 0.880566 6.22057 -5.47492 -5.82597 3.42333 1 -7.39013 0.0470777 4
387 1 9.81353 2.66897 4.47529 0.064997 -3.41803 -2.93799 1 -7.36416 0.012647 4
388 1 10.6953 1.78216 5.3827 0.787441 0.258913 -1.20542 1 -7.3527 0.00133208 4
389 1 11.5826 0.892604 4.4469 2.08404 2.02412 4.58716 1 -7.29552 0.0183505 4
390 1 11.5998 2.65565 6.25677 0.0690795 2.99839 -1.17806 1 -7.36851 0.0064626 4
391 1 8.91829 3.57144 5.37836 -1.27889 -3.15752 5.08112 1 -7.31125 0.0232932 4
392 1 12.4817 3.54691 5.35445 -5.71514 2.0219 -2.54947 1 -7.31859 0.0269203 4
393 1 8.93253 1.72745 7.14823 4.83869 6.34506 7.89986 1 -7.31941 0.0784758 4
394 1 9.78926 2.63402 8.0428 5.58288 -1.9439 1.53608 1 -7.38127 0.0232207 4
395 1 12.5275 1.79392 7.16333 -2.88007 -4.0604 1.578 1 -7.36311 0.0169747 4
396 1 11.6171 0.865464 8.0562 -6.44409 1.23242 0.454048 1 -7.31425 0.0269207 4
397 1 10.6845 3.5362 7.13406 6.16736 -0.43491 5.1112 1 -7.30102 0.040053 4
398 1 13.3953 0.914501 6.30185 -4.89125 0.727416 -6.30795 1 -7.36419 0.039987 4
399 1 13.4217 2.65218 4.45108 -2.42378 -16.1522 2.19 1 -7.38862 0.169029 4
400 1 14.2602 1.77861 5.34197 -4.16001 3.1995 -2.24147 1 -7.33185 0.0202703 4
401 1 15.1481 0.857561 4.45586 5.16306 1.57152 4.36213 1 -7.33859 0.029973 4
402 1 15.2092 2.65074 6.2268 -4.63313 -4.07678 -5.1486 1 -7.27188 0.0402051 4
403 1 16.9128 0.906372 6.2594 -6.74822 1.64081 -6.48979 1 -7.28419 0.0562351 4
404 1 16.963 2.63158 4.47111 -2.40421 4.66134 -7.13942 1 -7.34789 0.0488478 4
405 1 16.0695 3.55952 5.32629 -3.96723 -2.83201 0.638996 1 -7.36354 0.0150425 4
406 1 13.4439 2.6618 8.04455 5.31752 6.54863 -0.401985 1 -7.34788 0.0443928 4
407 1 16.0765 1.75658 7.13427 -8.9592 8.45362 -4.00339 1 -7.3854 0.104417 4
408 1 15.1785 0.923745 8.04055 4.08982 2.28774 1.74302 1 -7.33729 0.0155597 4
409 1 16.9939 2.65338 8.05313 -1.90327 -8.30737 0.298955 1 -7.27921 0.0452654 4
410 1 14.2927 3.56427 7.13085 -13.2528 2.65745 2.39517 1 -7.31761 0.117288 4
412 1 17.813 1.78805 5.34786 -8.66627 0.749827 -3.1221 1 -7.3105 0.0531639 4
413 1 18.7161 0.851411 4.44596 8.40017 -3.56784 6.3763 1 -7.32391 0.0771494 4
414 1 18.7367 2.67175 6.27386 2.19069 -5.42027 1.89777 1 -7.29503 0.0235153 4
415 1 20.5228 0.906133 6.20327 5.64703 -5.22504 -1.43938 1 -7.341 0.038131 4
416 1 20.5021 2.66784 4.4607 -4.57375 -4.92507 -7.96865 1 -7.3655 0.067642 4
417 1 19.5934 3.57834 5.36058 4.36212 1.48951 7.64608 1 -7.32103 0.0496131 4
418 1 19.6523 1.77571 7.16067 -3.574 4.21039 0.188339 1 -7.26783 0.0190066 4
419 1 18.6973 0.89209 8.04436 -1.7288 -0.64671 -3.98975 1 -7.34785 0.0120285 4
420 1 20.5265 2.69483 8.10519 0.326321 4.90666 -9.45612 1 -7.29475 0.0707077 4
421 1 17.8299 3.59736 7.13963 2.27304 3.31307 3.5919 1 -7.32059 0.0180783 4
423 1 0.884531 4.4137 4.4733 1.68127 -3.60285 0.146954 1 -7.28628 0.00985226 4
424 1 0.844938 6.25501 6.23996 -5.56721 -2.617 0.0580683 1 -7.28354 0.0235563 4
425 1 2.6818 4.47275 6.23913 1.726 2.6792 5.82447 1 -7.42566 0.0274375 4
426 1 2.67553 6.16551 4.47713 2.26502 5.81542 -2.39171 1 -7.34575 0.0278036 4
427 1 3.55179 5.35613 5.37502 0.0143589 1.79278 -6.93505 1 -7.39009 0.0319362 4
428 1 1.75137 7.11332 5.34585 -1.766 -2.96198 -3.119 1 -7.33591 0.013457 4
429 1 0.892445 8.01329 4.39458 0.0890522 -0.202596 -0.587368 1 -7.32221 0.000245222 4
430 1 2.62459 7.98604 6.22452 -9.98248 7.99611 1.60294 1 -7.23981 0.10342 4
431 1 1.79582 5.35078 7.16461 -8.79971 -6.26441 -8.53445 1 -7.28063 0.117959 4
432 1 0.887979 4.46153 8.06046 1.41435 4.50098 -4.87752 1 -7.34774 0.0286623 4
433 1 2.66388 6.23241 8.09641 9.54756 -6.16852 -5.2365 1 -7.33859 0.0974891 4
434 1 0.882777 8.01443 8.01458 7.87243 3.04143 -2.09059 1 -7.30135 0.0470529 4