ITEM: TIMESTEP
49126350
ITEM: NUMBER OF ATOMS
3060
ITEM: BOX BOUNDS pp pp mm
0.0000000000000000e+00 2.1394294200000001e+01
0.0000000000000000e+00 2.1394294200000001e+01
-5.3491084073550004e-03 5.3485735499999997e+01
ITEM: ATOMS id type x y z vx vy vz c_clusts c_atom_pe c_atom_ke c_atom_coord
1 1 0 0 0 0 0 0 1 -3.32501 0 2
2 1 1.78286 1.78286 0 0 0 0 1 -3.31285 0 2
3 1 0.891429 0.891429 0.891429 0 0 0 1 -7.00806 0 4
4 1 0.860523 2.6979 2.66224 0.491484 6.41728 -1.06275 1 -7.3253 0.0264858 4
5 1 2.68027 0.884963 2.66727 -0.469164 3.2393 6.36298 1 -7.40628 0.0318686 4
6 1 2.67429 2.67429 0.891429 0 0 0 1 -6.97643 0 4
7 1 3.56572 0 0 0 0 0 1 -3.33722 0 2
8 1 3.54738 1.73232 1.77636 5.61492 -3.91386 6.57713 1 -7.34941 0.0560833 4
9 1 0 3.56572 0 0 0 0 1 -3.33172 0 2
10 1 1.75046 3.55314 1.8147 1.6892 0.888707 3.78244 1 -7.36468 0.0111726 4
11 1 3.56572 3.56572 0 0 0 0 1 -3.34745 0 2
12 1 1.81431 1.80599 3.56379 -3.28994 1.65471 2.82574 1 -7.31667 0.0134111 4
13 1 3.53431 3.56504 3.56351 6.63474 3.54114 2.00225 1 -7.28937 0.0376994 4
292 1 1.79587 0.00968006 1.77892 5.33631 -0.933388 -3.27153 1 -7.37412 0.0249284 4
56 1 -0.0281533 3.55807 3.57939 1.41335 -3.20942 -0.585602 1 -7.3351 0.007868 4
55 1 -0.0262956 1.78443 1.7986 3.45287 -4.6649 2.30503 1 -7.37725 0.0242726 4
291 1 3.54393 -0.0014887 3.56264 7.75153 -3.44784 0.281318 1 -7.36859 0.0448476 4
14 1 5.34857 1.78286 0 0 0 0 1 -3.33355 0 2
15 1 4.45714 0.891429 0.891429 0 0 0 1 -7.03462 0 4
16 1 4.41775 2.62922 2.68034 2.56809 -6.59649 -3.87322 1 -7.2907 0.0405266 4
17 1 6.24225 0.907774 2.70343 -5.08226 -3.51395 3.73616 1 -7.35028 0.0324508 4
18 1 6.24 2.67429 0.891429 0 0 0 1 -7.00561 0 4
19 1 7.13143 0 0 0 0 0 1 -3.31516 0 2
20 1 7.15501 1.7666 1.74996 -4.38882 -1.50078 2.95033 1 -7.35153 0.0188088 4
21 1 8.02286 0.891429 0.891429 0 0 0 1 -7.0336 0 4
22 1 8.04058 2.63999 2.6553 -2.45615 0.300691 -2.57993 1 -7.31073 0.00795406 4
23 1 5.3441 3.57819 1.78247 -1.05472 -6.60769 -8.70763 1 -7.31802 0.0750626 4
24 1 7.13143 3.56572 0 0 0 0 1 -3.32686 0 2
25 1 5.32342 1.77315 3.55713 -0.38119 -8.48923 -10.1971 1 -7.3492 0.109668 4
26 1 7.14996 3.56428 3.55421 3.344 -4.99443 -1.82031 1 -7.2451 0.0245486 4
306 1 7.16063 0.0471601 3.56599 8.1083 -3.37358 -7.79172 1 -7.37075 0.085793 4
28 1 8.91429 1.78286 0 0 0 0 1 -3.33064 0 2
29 1 9.76219 0.905189 2.70084 2.03088 -1.5677 -3.99926 1 -7.33281 0.014052 4
30 1 9.80572 2.67429 0.891429 0 0 0 1 -6.98429 0 4
31 1 10.6971 0 0 0 0 0 1 -3.33959 0 2
32 1 10.6672 1.78194 1.80394 -1.32695 -4.14879 8.0676 1 -7.3291 0.0523207 4
33 1 12.48 1.78286 0 0 0 0 1 -3.33374 0 2
34 1 11.5886 0.891429 0.891429 0 0 0 1 -6.99996 0 4
35 1 11.597 2.69553 2.65016 4.71407 3.16616 6.03656 1 -7.37243 0.0427526 4
36 1 8.91397 3.59459 1.7571 3.73051 -0.363309 -5.37158 1 -7.31327 0.0267037 4
37 1 10.6971 3.56572 0 0 0 0 1 -3.3292 0 2
38 1 12.4895 3.56039 1.77609 -1.39587 -4.64007 -8.11635 1 -7.39371 0.0556162 4
39 1 8.93997 1.8287 3.5724 3.74692 3.76777 1.90955 1 -7.32021 0.0198441 4
40 1 12.4651 1.83128 3.58061 0.117106 -2.83365 -4.74052 1 -7.28256 0.0189938 4
41 1 10.6907 3.57215 3.5781 2.43339 -3.93646 -0.330418 1 -7.25467 0.0133985 4
319 1 10.6722 -0.0434266 3.56852 1.66363 -2.8483 0.904899 1 -7.31094 0.00728197 4
320 1 8.9034 -0.00525727 1.75735 -12.5231 1.20182 -0.566717 1 -7.35052 0.0987121 4
321 1 12.4887 0.0226717 1.79414 1.46134 -3.44826 -8.82028 1 -7.32787 0.0571533 4
42 1 13.3926 0.8974 2.67465 -5.12866 -1.49961 -2.60091 1 -7.28519 0.021982 4
43 1 13.3714 2.67429 0.891429 0 0 0 1 -7.05585 0 4
44 1 14.2629 0 0 0 0 0 1 -3.30772 0 2
45 1 14.2303 1.79284 1.76282 -5.47127 -4.81383 -10.3372 1 -7.35006 0.0995669 4
46 1 16.0457 1.78286 0 0 0 0 1 -3.33143 0 2
47 1 15.1543 0.891429 0.891429 0 0 0 1 -7.00664 0 4
48 1 15.1223 2.68249 2.69734 5.12707 2.1686 1.50397 1 -7.32853 0.0206967 4
49 1 16.9237 0.928238 2.66521 4.97649 2.3724 1.86597 1 -7.36022 0.0210851 4
50 1 16.9371 2.67429 0.891429 0 0 0 1 -7.01789 0 4
51 1 14.2629 3.56572 0 0 0 0 1 -3.33837 0 2
52 1 16.0342 3.56459 1.76982 -6.86268 5.46776 -1.92617 1 -7.34282 0.0502317 4
53 1 16.0029 1.80393 3.56459 3.63125 2.54185 -5.67962 1 -7.36385 0.0323071 4
54 1 14.2475 3.60194 3.55946 0.358128 10.4138 -6.37958 1 -7.29675 0.0929127 4
336 1 14.2517 -0.029973 3.5744 -1.52148 -6.09287 -3.12943 1 -7.36979 0.0306428 4
57 1 17.8286 0 0 0 0 0 1 -3.33831 0 2
58 1 17.8496 1.79924 1.77082 6.21428 -3.52572 -1.3972 1 -7.36007 0.0329887 4
59 1 19.6114 1.78286 0 0 0 0 1 -3.30644 0 2
60 1 18.72 0.891429 0.891429 0 0 0 1 -7.03843 0 4
61 1 18.7259 2.69904 2.66617 7.15482 4.04053 3.4501 1 -7.33201 0.0494334 4
62 1 20.5031 0.923944 2.6547 1.63884 -2.5032 -0.686078 1 -7.38847 0.00586483 4
63 1 20.5029 2.67429 0.891429 0 0 0 1 -7.00581 0 4
64 1 17.8286 3.56572 0 0 0 0 1 -3.3208 0 2
65 1 19.5849 3.56446 1.75048 2.95195 2.37674 -0.606454 1 -7.35563 0.00916876 4
66 1 19.6314 1.78809 3.57055 5.93024 2.85955 0.56069 1 -7.36084 0.0271746 4
67 1 17.844 3.54997 3.6037 -0.787761 -0.0456557 6.72989 1 -7.29727 0.0285781 4
68 1 19.6238 0.0193087 1.76133 -2.20862 2.27498 -2.1201 1 -7.36929 0.00905528 4
69 1 1.78286 5.34857 0 0 0 0 1 -3.33685 0 2
70 1 0.891429 4.45714 0.891429 0 0 0 1 -7.01745 0 4
71 1 0.849449 6.24897 2.61134 -3.90931 4.71767 4.06351 1 -7.33217 0.0336429 4
72 1 2.653 4.40607 2.6489 7.72295 -8.87682 2.42362 1 -7.37527 0.089826 4
73 1 2.67429 6.24 0.891429 0 0 0 1 -6.99869 0 4
74 1 3.55738 5.29757 1.78372 -0.573823 6.31766 -3.25713 1 -7.33371 0.031651 4
75 1 0 7.13143 0 0 0 0 1 -3.34318 0 2
76 1 1.8062 7.12752 1.77355 -0.123094 8.11939 5.47806 1 -7.36903 0.0597211 4
77 1 0.891429 8.02286 0.891429 0 0 0 1 -7.00033 0 4
78 1 2.62848 8.01501 2.65669 0.809423 -8.64944 9.63905 1 -7.32981 0.104804 4
79 1 3.56572 7.13143 0 0 0 0 1 -3.33498 0 2
80 1 1.78394 5.34397 3.53748 -4.04076 -7.97929 -4.38106 1 -7.27882 0.0617388 4
81 1 3.58435 7.13545 3.55568 -8.26908 -0.55385 4.971 1 -7.2829 0.0581317 4
128 1 -0.00240151 5.33293 1.7485 8.71691 4.86717 4.36609 1 -7.38308 0.0739048 4
82 1 -0.01079 7.09623 3.53405 -7.39827 -2.05135 1.86899 1 -7.33113 0.0388616 4
83 1 5.34857 5.34857 0 0 0 0 1 -3.34655 0 2
84 1 4.45714 4.45714 0.891429 0 0 0 1 -7.0106 0 4
85 1 4.44701 6.26468 2.64431 -0.0797547 5.93979 -4.85039 1 -7.32609 0.0366072 4
86 1 6.23438 4.48289 2.6322 -1.5455 -10.3164 -10.8533 1 -7.31548 0.141048 4
87 1 6.24 6.24 0.891429 0 0 0 1 -7.0399 0 4
88 1 7.1425 5.33914 1.76151 2.44045 -9.60514 3.40134 1 -7.38107 0.0683322 4
89 1 8.02286 4.45714 0.891429 0 0 0 1 -7.06038 0 4
90 1 8.01391 6.18898 2.6714 -2.88804 0.12593 5.18379 1 -7.3524 0.0219271 4
91 1 5.36468 7.13545 1.77641 -4.99328 -2.2943 -0.750284 1 -7.38009 0.0191456 4
92 1 4.45714 8.02286 0.891429 0 0 0 1 -6.99794 0 4
93 1 6.20388 8.01076 2.70909 -5.4772 2.6148 2.07957 1 -7.38702 0.02562 4
94 1 7.13143 7.13143 0 0 0 0 1 -3.2998 0 2
95 1 8.02286 8.02286 0.891429 0 0 0 1 -7.02492 0 4
96 1 5.32211 5.37703 3.54127 -1.61291 4.24706 -3.65609 1 -7.34312 0.0211662 4
97 1 7.14206 7.14574 3.54159 8.1548 1.73623 -3.56862 1 -7.26613 0.0511947 4
98 1 8.91429 5.34857 0 0 0 0 1 -3.32241 0 2
99 1 9.80659 4.44922 2.6747 -2.03486 -4.01021 -2.17102 1 -7.36947 0.0155207 4
100 1 9.80572 6.24 0.891429 0 0 0 1 -7.03221 0 4
101 1 10.6735 5.36773 1.78391 -2.25336 -6.99483 3.70771 1 -7.3643 0.0421709 4
102 1 12.48 5.34857 0 0 0 0 1 -3.33752 0 2
103 1 11.5886 4.45714 0.891429 0 0 0 1 -6.96381 0 4
104 1 11.5889 6.21272 2.6585 -3.09292 -2.79447 -2.35284 1 -7.31404 0.0142605 4
105 1 8.89795 7.11791 1.7834 5.07803 6.19353 -3.67918 1 -7.33563 0.0483516 4
106 1 9.76339 8.00328 2.65406 7.56972 1.92122 1.30188 1 -7.37483 0.0390178 4
107 1 10.6971 7.13143 0 0 0 0 1 -3.3466 0 2
108 1 12.5018 7.14072 1.77958 -4.2712 -9.74911 5.378 1 -7.3173 0.0885159 4
109 1 11.5886 8.02286 0.891429 0 0 0 1 -7.05108 0 4
110 1 8.90207 5.29382 3.56847 5.53481 4.01085 -5.10864 1 -7.354 0.0453246 4
111 1 12.4962 5.33579 3.58417 -7.79852 0.987578 1.92076 1 -7.37186 0.0407574 4
112 1 10.6773 7.10536 3.52733 -3.16971 0.145043 2.03451 1 -7.31406 0.00884299 4
113 1 13.3686 4.50468 2.65543 2.51556 -4.31713 -3.33857 1 -7.3613 0.0224769 4
114 1 13.3714 6.24 0.891429 0 0 0 1 -6.97987 0 4
115 1 14.277 5.34287 1.7913 -3.12846 -0.6212 8.33513 1 -7.40559 0.0495747 4
116 1 16.0457 5.34857 0 0 0 0 1 -3.34512 0 2
117 1 15.1543 4.45714 0.891429 0 0 0 1 -7.02391 0 4
118 1 15.1486 6.23734 2.63678 9.99821 0.117558 -6.49209 1 -7.33252 0.0884625 4
119 1 16.922 4.47945 2.6624 7.53637 1.45254 1.34937 1 -7.27976 0.0377984 4
120 1 16.9371 6.24 0.891429 0 0 0 1 -7.00492 0 4
121 1 13.4157 8.01406 2.70991 -3.83463 1.30992 0.501668 1 -7.33793 0.0103771 4
122 1 14.2629 7.13143 0 0 0 0 1 -3.33683 0 2
123 1 16.0771 7.14851 1.75193 2.7212 -4.50528 -4.58589 1 -7.33521 0.0303326 4
124 1 15.1543 8.02286 0.891429 0 0 0 1 -7.00196 0 4
125 1 16.9419 8.03782 2.6472 -0.171436 0.352139 1.86968 1 -7.35629 0.00227129 4
126 1 16.0413 5.35303 3.5531 -7.30362 -2.58723 3.05886 1 -7.33029 0.0431921 4
127 1 14.31 7.16119 3.55661 -12.4418 -4.64076 -5.04946 1 -7.35558 0.125626 4
129 1 17.8262 5.34739 1.81241 5.25764 0.502255 12.2469 1 -7.3387 0.110718 4
130 1 19.6114 5.34857 0 0 0 0 1 -3.31795 0 2
131 1 18.72 4.45714 0.891429 0 0 0 1 -7.01949 0 4
132 1 18.7158 6.22732 2.69348 2.55289 -4.46219 -1.74036 1 -7.37272 0.018335 4
133 1 20.4873 4.44443 2.63019 1.3343 -4.29706 -6.39028 1 -7.33239 0.0380182 4
134 1 20.5029 6.24 0.891429 0 0 0 1 -6.97464 0 4
135 1 17.8286 7.13143 0 0 0 0 1 -3.32387 0 2
136 1 19.5607 7.11711 1.7808 -1.79438 -4.98645 5.44984 1 -7.35269 0.0359671 4
137 1 18.72 8.02286 0.891429 0 0 0 1 -7.03428 0 4
138 1 20.4902 7.98873 2.69566 -2.96692 -2.25602 1.49573 1 -7.2893 0.0100394 4
139 1 19.6001 5.32677 3.53202 -3.91872 2.92501 0.906851 1 -7.39084 0.0153953 4
140 1 17.8099 7.08415 3.55858 10.2186 -3.64545 3.36843 1 -7.30566 0.0803278 4
141 1 1.78286 8.91429 0 0 0 0 1 -3.32151 0 2
142 1 0.900207 9.80094 2.71311 -3.48324 5.09382 -4.09103 1 -7.31593 0.0341192 4
143 1 2.67429 9.80572 0.891429 0 0 0 1 -7.05149 0 4
144 1 3.54667 8.92217 1.76241 3.34891 -4.36435 3.02049 1 -7.32514 0.024515 4
145 1 0 10.6971 0 0 0 0 1 -3.30342 0 2
146 1 1.7784 10.6573 1.77782 1.63242 -5.44249 7.50379 1 -7.3607 0.0551422 4
147 1 1.78286 12.48 0 0 0 0 1 -3.31956 0 2
148 1 0.891429 11.5886 0.891429 0 0 0 1 -7.00686 0 4
149 1 2.65645 11.5622 2.67423 -3.47066 -1.94544 -0.836997 1 -7.28157 0.0102892 4
150 1 3.56572 10.6971 0 0 0 0 1 -3.34171 0 2
151 1 3.55096 12.4738 1.77909 2.9335 1.68992 -6.07074 1 -7.42071 0.0300726 4
152 1 1.77732 8.906 3.57502 4.37497 -1.6447 -2.23149 1 -7.36194 0.0166965 4
153 1 1.78275 12.4616 3.61454 2.82179 -3.7338 -6.00082 1 -7.34293 0.036047 4
154 1 3.55861 10.6804 3.6191 0.153536 -0.267716 -2.75406 1 -7.33542 0.0047803 4
205 1 0.021523 8.88733 1.77539 7.79864 -5.71945 -1.6322 1 -7.30336 0.0598743 4
204 1 0.0274687 12.5029 1.75508 12.8013 -1.76385 -1.01066 1 -7.35799 0.104571 4
155 1 5.34857 8.91429 0 0 0 0 1 -3.31565 0 2
156 1 4.47806 9.77964 2.69796 0.390808 0.535931 4.31364 1 -7.28378 0.0118556 4
157 1 6.24 9.80572 0.891429 0 0 0 1 -7.02863 0 4
158 1 7.07474 8.87431 1.76865 -0.375703 -5.05551 -5.42922 1 -7.29418 0.0343429 4
159 1 7.95105 9.76542 2.68997 -11.4723 -1.3462 -2.35381 1 -7.29073 0.0864958 4
160 1 5.38941 10.6817 1.78776 -8.4373 1.00058 6.9147 1 -7.29087 0.0746926 4
161 1 5.34857 12.48 0 0 0 0 1 -3.33448 0 2
162 1 4.45714 11.5886 0.891429 0 0 0 1 -6.9986 0 4
163 1 6.2711 11.5767 2.7386 3.04686 -1.34622 -1.95627 1 -7.29429 0.00928824 4
164 1 7.13143 10.6971 0 0 0 0 1 -3.35543 0 2
165 1 7.13823 12.4951 1.76935 -1.34814 0.367529 -2.85128 1 -7.2941 0.00627552 4
166 1 8.02286 11.5886 0.891429 0 0 0 1 -7.03574 0 4
167 1 5.36558 8.93157 3.56466 -5.67159 -10.7554 -0.655933 1 -7.37308 0.0922907 4
168 1 5.37526 12.4602 3.58194 0.273274 -2.4918 6.3444 1 -7.3202 0.0289647 4
169 1 7.14097 10.674 3.58494 2.18947 -0.60269 -2.07387 1 -7.34077 0.00588687 4
170 1 8.91429 8.91429 0 0 0 0 1 -3.34163 0 2
171 1 9.80572 9.80572 0.891429 0 0 0 1 -6.93269 0 4
172 1 10.7132 8.88758 1.77132 6.29668 -5.12989 -0.214725 1 -7.33902 0.0410864 4
173 1 12.48 8.91429 0 0 0 0 1 -3.32101 0 2
174 1 11.5288 9.76356 2.66248 5.07507 -4.3631 -0.647888 1 -7.34011 0.0281416 4
175 1 8.86916 10.7388 1.78173 -4.07851 -1.94089 0.444696 1 -7.26294 0.0128214 4
176 1 8.91429 12.48 0 0 0 0 1 -3.32528 0 2
177 1 9.78572 11.5627 2.65096 4.70651 1.30937 -3.07247 1 -7.41135 0.0207304 4
178 1 10.6971 10.6971 0 0 0 0 1 -3.3179 0 2
179 1 10.7019 12.4669 1.77865 -5.06242 11.1211 5.40313 1 -7.35956 0.111103 4
180 1 12.44 10.6752 1.79469 5.32349 1.22135 2.35077 1 -7.298 0.0220073 4
181 1 12.48 12.48 0 0 0 0 1 -3.35735 0 2
182 1 11.5886 11.5886 0.891429 0 0 0 1 -7.01472 0 4
183 1 8.91272 8.89307 3.51836 -1.72497 3.77271 -0.514066 1 -7.29829 0.0108757 4
184 1 12.4707 8.87891 3.54257 2.96347 0.306739 -4.28318 1 -7.29684 0.0169436 4
185 1 8.9242 12.4577 3.55861 2.36109 2.34679 -1.34139 1 -7.31657 0.00801777 4
186 1 10.6312 10.6668 3.5391 3.17889 -6.59734 4.27517 1 -7.3368 0.044757 4
187 1 12.5038 12.4376 3.52793 2.62834 -2.66454 -2.86869 1 -7.29336 0.0138411 4
188 1 13.3714 9.80572 0.891429 0 0 0 1 -6.99426 0 4
189 1 14.2869 8.90547 1.7892 6.33703 2.05266 0.72288 1 -7.28784 0.0279432 4
190 1 16.0457 8.91429 0 0 0 0 1 -3.34477 0 2
191 1 15.2395 9.82595 2.70184 -2.06941 0.577829 -5.74754 1 -7.26043 0.0234347 4
192 1 16.9371 9.80572 0.891429 0 0 0 1 -6.98778 0 4
193 1 13.3879 11.5777 2.70122 6.1333 -4.76471 0.948452 1 -7.33619 0.0381046 4
194 1 14.2629 10.6971 0 0 0 0 1 -3.36223 0 2
195 1 14.2627 12.5008 1.80516 9.97692 -4.95328 0.202077 1 -7.37299 0.0772522 4
196 1 16.0869 10.7554 1.77152 -5.5796 0.720846 -2.89725 1 -7.34056 0.0249254 4
197 1 16.0457 12.48 0 0 0 0 1 -3.31183 0 2
198 1 15.1543 11.5886 0.891429 0 0 0 1 -7.01031 0 4
199 1 16.9795 11.6219 2.66581 -9.80967 -5.61822 3.80251 1 -7.30272 0.088542 4
200 1 16.0925 8.93313 3.55087 1.45212 0.0600977 -11.7299 1 -7.3239 0.0869548 4
201 1 14.2714 10.6798 3.56361 2.26934 3.19045 -10.9054 1 -7.34579 0.0835653 4
202 1 16.0546 12.5039 3.58757 -5.17651 -6.80629 2.11954 1 -7.3102 0.0483092 4
203 1 21.3815 10.7143 3.58035 1.99447 10.374 3.76347 1 -7.39773 0.0782771 4
206 1 17.8498 8.95307 1.77273 12.4653 -0.285596 -0.830219 1 -7.33524 0.0971943 4
207 1 19.6114 8.91429 0 0 0 0 1 -3.34079 0 2
208 1 18.7435 9.85955 2.68779 -8.46253 -5.22316 12.0959 1 -7.3384 0.152623 4
209 1 20.5029 9.80572 0.891429 0 0 0 1 -6.96338 0 4
210 1 17.8286 10.6971 0 0 0 0 1 -3.32392 0 2
211 1 17.87 12.4449 1.76647 -2.34521 2.04893 6.14004 1 -7.32137 0.0295019 4
212 1 19.631 10.7753 1.7782 7.18743 0.878075 -0.858995 1 -7.32897 0.0330932 4
213 1 19.6114 12.48 0 0 0 0 1 -3.32439 0 2
214 1 18.72 11.5886 0.891429 0 0 0 1 -7.05154 0 4
215 1 20.5418 11.6063 2.65313 2.33483 1.9815 3.91014 1 -7.3504 0.0153534 4
216 1 19.6011 8.91488 3.55771 5.1005 0.89058 2.32488 1 -7.37943 0.0200504 4
217 1 17.8706 10.7153 3.59944 -2.58922 3.74717 3.09825 1 -7.36437 0.0188872 4
218 1 19.6307 12.5075 3.58227 -1.6718 -2.21252 2.20379 1 -7.28643 0.00780948 4
219 1 0.908587 13.342 2.67296 3.62709 -1.66048 -6.33311 1 -7.32678 0.0348691 4
220 1 2.67429 13.3714 0.891429 0 0 0 1 -7.03423 0 4
221 1 0 14.2629 0 0 0 0 1 -3.3177 0 2
222 1 1.78312 14.256 1.76239 4.47322 -4.05146 -1.2974 1 -7.38199 0.0237189 4
223 1 1.78286 16.0457 0 0 0 0 1 -3.32013 0 2
224 1 0.891429 15.1543 0.891429 0 0 0 1 -7.04976 0 4
225 1 0.883438 16.9151 2.6659 -0.375062 -2.52572 2.09789 1 -7.33295 0.00679755 4
226 1 2.65468 15.1406 2.6655 1.23098 -3.14532 8.69977 1 -7.32843 0.0542098 4
227 1 2.67429 16.9371 0.891429 0 0 0 1 -6.91088 0 4
228 1 3.56572 14.2629 0 0 0 0 1 -3.34401 0 2
229 1 3.60238 15.9877 1.8281 -3.99406 -9.55952 1.84943 1 -7.25558 0.0689383 4
230 1 1.75836 16.019 3.5658 3.49095 -6.20674 -3.285 1 -7.37454 0.0382802 4
231 1 3.5875 14.2547 3.60052 6.2321 -0.31231 -1.03355 1 -7.32228 0.0249001 4
233 1 0.00165081 16.0259 1.74474 5.61077 3.34795 0.886365 1 -7.35308 0.0270601 4
232 1 -0.0150195 14.2568 3.56858 3.50106 -2.53448 0.784478 1 -7.28602 0.0120106 4
234 1 4.42243 13.3189 2.66409 -2.4865 2.35282 5.45884 1 -7.30224 0.0258415 4
235 1 6.24 13.3714 0.891429 0 0 0 1 -7.03156 0 4
236 1 8.02342 13.3957 2.65818 0.0765443 8.92521 5.90625 1 -7.30638 0.0712983 4
237 1 5.35869 14.2549 1.78615 0.484961 -0.495612 -3.13463 1 -7.25954 0.00641516 4
238 1 5.34857 16.0457 0 0 0 0 1 -3.35324 0 2
239 1 4.45714 15.1543 0.891429 0 0 0 1 -7.01791 0 4
240 1 4.44109 16.9376 2.72045 -3.2927 0.945851 5.01838 1 -7.33371 0.0229804 4
241 1 6.25958 15.1612 2.69611 -1.17117 -1.41808 5.84264 1 -7.33489 0.0233528 4
242 1 6.24 16.9371 0.891429 0 0 0 1 -7.02362 0 4
243 1 7.13143 14.2629 0 0 0 0 1 -3.33933 0 2
244 1 7.16505 16.0617 1.78069 -3.33229 1.47376 -4.0419 1 -7.37742 0.018432 4
245 1 8.02286 15.1543 0.891429 0 0 0 1 -7.05869 0 4
246 1 7.97457 16.9634 2.67772 2.00002 -4.98737 5.20487 1 -7.31621 0.0348339 4
247 1 5.30092 15.9952 3.59857 2.01946 5.54184 0.241988 1 -7.31129 0.0216908 4
248 1 7.09938 14.2685 3.55698 -1.2173 3.75031 8.71886 1 -7.3359 0.0569926 4
249 1 9.80572 13.3714 0.891429 0 0 0 1 -6.98683 0 4
250 1 11.5942 13.3732 2.6644 1.14774 4.15999 0.363853 1 -7.31866 0.0116738 4
251 1 8.88761 14.2798 1.77301 -2.20544 -10.2698 -1.534 1 -7.38144 0.0701387 4
252 1 8.91429 16.0457 0 0 0 0 1 -3.33039 0 2
253 1 9.80256 15.1293 2.67136 -2.18507 -7.96838 8.01973 1 -7.33026 0.0825248 4
254 1 9.80572 16.9371 0.891429 0 0 0 1 -7.06168 0 4
255 1 10.6971 14.2629 0 0 0 0 1 -3.33923 0 2
256 1 10.6919 16.06 1.78142 -9.40072 -0.691429 -2.14305 1 -7.291 0.0581622 4
257 1 12.4695 14.3012 1.77241 -0.125521 1.38086 5.47583 1 -7.33247 0.0198599 4
258 1 12.48 16.0457 0 0 0 0 1 -3.32208 0 2
259 1 11.5886 15.1543 0.891429 0 0 0 1 -7.02653 0 4
260 1 11.6026 16.9313 2.7204 4.14462 -4.60939 -4.08574 1 -7.32694 0.0343067 4
261 1 8.92492 16.0809 3.55603 0.517664 -3.75156 -0.959528 1 -7.20988 0.00950003 4
262 1 10.6944 14.2484 3.5586 -4.88785 -3.79605 0.0556523 1 -7.35438 0.0238415 4
263 1 12.4727 16.0122 3.57365 -1.56564 2.69295 -11.6077 1 -7.3663 0.0899046 4
264 1 13.3714 13.3714 0.891429 0 0 0 1 -6.99283 0 4
265 1 15.1596 13.3873 2.65158 -7.09316 5.6626 5.63786 1 -7.3146 0.0710583 4
266 1 16.9371 13.3714 0.891429 0 0 0 1 -6.97789 0 4
267 1 13.3748 15.1479 2.67138 1.00341 -7.02394 -3.57317 1 -7.33696 0.0392813 4
268 1 13.3714 16.9371 0.891429 0 0 0 1 -7.04169 0 4
269 1 14.2629 14.2629 0 0 0 0 1 -3.32654 0 2
270 1 14.2694 16.0294 1.744 -6.58993 -0.471916 4.91282 1 -7.3776 0.0421916 4
271 1 16.0575 14.2889 1.7755 0.14249 -5.65978 -0.825816 1 -7.40976 0.0203754 4
272 1 16.0457 16.0457 0 0 0 0 1 -3.33257 0 2
273 1 15.1543 15.1543 0.891429 0 0 0 1 -7.01203 0 4
274 1 15.1832 16.8747 2.64052 0.48526 -1.91318 3.21979 1 -7.28205 0.00887753 4
275 1 16.942 15.1773 2.66134 -0.602874 1.70364 7.92669 1 -7.3806 0.0411413 4
276 1 16.9371 16.9371 0.891429 0 0 0 1 -7.01302 0 4
277 1 14.2484 14.2519 3.57722 2.96341 -1.51437 -6.7945 1 -7.32851 0.0356279 4
278 1 16.0589 16.0475 3.57033 -3.5296 -3.77167 0.782605 1 -7.39096 0.0169898 4
279 1 18.7208 13.3777 2.68907 -3.81438 -0.790642 -3.73221 1 -7.33212 0.0181151 4
280 1 20.5029 13.3714 0.891429 0 0 0 1 -7.02966 0 4
281 1 17.8286 14.2629 0 0 0 0 1 -3.30952 0 2
282 1 17.7939 16.059 1.77846 6.4824 6.64754 3.22445 1 -7.34406 0.0601316 4
283 1 19.6003 14.249 1.81197 -12.4298 4.66163 -8.26125 1 -7.34761 0.15217 4
284 1 19.6114 16.0457 0 0 0 0 1 -3.32613 0 2
285 1 18.72 15.1543 0.891429 0 0 0 1 -6.98291 0 4
286 1 18.7045 16.9455 2.68878 -4.0828 -0.991168 2.00883 1 -7.30608 0.0134986 4
287 1 20.4739 15.1482 2.66655 0.595851 10.5541 -4.36014 1 -7.35992 0.081385 4
288 1 20.5029 16.9371 0.891429 0 0 0 1 -7.03419 0 4
289 1 17.8066 14.3159 3.56422 -3.25102 -0.0870454 1.43955 1 -7.36687 0.0078731 4
290 1 19.6257 16.0413 3.57996 -0.377716 -10.4995 -9.40681 1 -7.34682 0.123782 4
293 1 0 17.8286 0 0 0 0 1 -3.33603 0 2
294 1 1.75191 17.8243 1.77787 -1.0328 5.16645 -4.70753 1 -7.28599 0.0310713 4
295 1 1.78286 19.6114 0 0 0 0 1 -3.34245 0 2
296 1 0.891429 18.72 0.891429 0 0 0 1 -7.03746 0 4
297 1 0.89536 20.4902 2.64892 -3.28589 1.43483 1.44936 1 -7.32821 0.00930927 4
298 1 2.67782 18.7181 2.7424 -0.135347 -5.12341 -10.5055 1 -7.22941 0.0850443 4
299 1 2.67429 20.5029 0.891429 0 0 0 1 -7.03532 0 4
300 1 3.56572 17.8286 0 0 0 0 1 -3.32528 0 2
301 1 3.51312 19.6198 1.76958 0.232294 7.76294 9.44302 1 -7.31066 0.0930451 4
302 1 1.76107 19.5903 3.62024 -7.07201 1.51733 5.00717 1 -7.31088 0.0481679 4
303 1 3.59349 17.7853 3.61063 4.66143 1.77458 2.64981 1 -7.3689 0.0198551 4
305 1 0.0060789 19.5931 1.78049 -0.417828 3.32867 -0.666306 1 -7.39068 0.0072815 4
304 1 0.00152503 17.821 3.56242 -6.83253 7.18832 -1.85245 1 -7.33602 0.0633549 4
27 1 5.35993 21.434 1.77522 9.2537 0.0399233 -5.487 1 -7.30987 0.0720394 4
307 1 5.35508 17.8217 1.76603 -0.640074 -5.1397 3.92114 1 -7.3963 0.0262673 4
308 1 5.34857 19.6114 0 0 0 0 1 -3.34606 0 2
309 1 4.45714 18.72 0.891429 0 0 0 1 -7.00313 0 4
310 1 4.4371 20.5071 2.6713 -4.91345 3.05237 -3.10127 1 -7.28411 0.0268121 4
311 1 6.22542 18.6947 2.67594 1.90295 -1.53465 -1.3953 1 -7.35041 0.00493162 4
312 1 6.24 20.5029 0.891429 0 0 0 1 -6.98794 0 4
313 1 7.13143 17.8286 0 0 0 0 1 -3.32613 0 2
314 1 7.14105 19.6208 1.80264 0.288368 -7.13146 -5.08739 1 -7.33939 0.0478163 4
315 1 8.02286 18.72 0.891429 0 0 0 1 -6.98626 0 4
316 1 8.01148 20.5413 2.65473 4.26813 -3.29476 3.45568 1 -7.38256 0.0255282 4
317 1 5.3402 19.5969 3.53551 5.20945 1.98218 2.82516 1 -7.33546 0.0243051 4
318 1 7.11631 17.8572 3.59579 -1.52006 -8.97226 -7.71602 1 -7.31824 0.0886017 4
322 1 8.91303 17.8206 1.78173 -9.21787 -2.19103 -3.9482 1 -7.28679 0.0655776 4
323 1 8.91429 19.6114 0 0 0 0 1 -3.32389 0 2
324 1 9.79495 18.7483 2.70292 -1.46901 5.69377 -0.328252 1 -7.37761 0.0215887 4
325 1 9.80572 20.5029 0.891429 0 0 0 1 -7.07309 0 4
326 1 10.6971 17.8286 0 0 0 0 1 -3.32595 0 2
327 1 10.6672 19.622 1.75762 -1.35799 -0.101198 -3.15566 1 -7.35097 0.00735245 4
328 1 12.496 17.8215 1.77561 -2.54215 4.19784 -6.13694 1 -7.38313 0.0384325 4
329 1 12.48 19.6114 0 0 0 0 1 -3.33819 0 2
330 1 11.5886 18.72 0.891429 0 0 0 1 -7.02149 0 4
331 1 11.591 20.4916 2.67706 -4.4187 -3.79558 2.57908 1 -7.30473 0.0252599 4
332 1 8.92784 19.6206 3.54539 -1.65241 -6.91589 0.788556 1 -7.33385 0.0318569 4
333 1 10.6782 17.8352 3.5709 0.565667 2.32235 -2.46544 1 -7.35578 0.00733944 4
334 1 12.5358 19.6215 3.57289 9.30315 -7.77766 -6.26548 1 -7.34208 0.115956 4
335 1 16.0508 21.3831 1.76161 0.0290455 0.103287 2.72137 1 -7.36884 0.00461675 4
337 1 13.3932 18.6924 2.64788 -0.261245 -6.4788 2.13617 1 -7.32471 0.029009 4
338 1 13.3714 20.5029 0.891429 0 0 0 1 -7.0129 0 4
339 1 14.2629 17.8286 0 0 0 0 1 -3.33593 0 2
340 1 14.2768 19.6286 1.76578 -3.73433 -2.25892 -3.88411 1 -7.33962 0.021246 4
341 1 16.0888 17.8329 1.76297 -4.58991 -1.99561 0.829426 1 -7.32526 0.0160198 4
342 1 16.0457 19.6114 0 0 0 0 1 -3.31564 0 2
343 1 15.1543 18.72 0.891429 0 0 0 1 -7.00491 0 4
344 1 15.1853 20.5029 2.66187 -4.99272 1.00939 7.51793 1 -7.38177 0.0513286 4
345 1 16.9729 18.7024 2.69331 2.73471 0.617509 2.06856 1 -7.39101 0.00755558 4
346 1 16.9371 20.5029 0.891429 0 0 0 1 -7.01032 0 4
347 1 14.2703 17.7919 3.55161 -1.75803 5.51581 -2.63339 1 -7.29647 0.0251769 4
348 1 16.0634 19.5973 3.55554 2.9566 0.514322 0.57928 1 -7.35536 0.00581444 4
350 1 21.3875 21.4024 3.53303 -5.31882 2.12641 2.48017 1 -7.29538 0.0242514 4
349 1 17.8045 21.4397 3.51699 -4.06825 5.25526 0.390376 1 -7.30444 0.0275865 4
351 1 17.8286 17.8286 0 0 0 0 1 -3.32879 0 2
352 1 17.8617 19.608 1.80716 -5.58333 -2.24101 -1.15319 1 -7.32369 0.0233569 4
353 1 19.6105 17.7805 1.77954 -1.40185 5.43227 2.60775 1 -7.34422 0.0238234 4
354 1 19.6114 19.6114 0 0 0 0 1 -3.33815 0 2
355 1 18.72 18.72 0.891429 0 0 0 1 -6.98681 0 4
356 1 18.7365 20.519 2.68606 -2.02165 7.23111 2.87323 1 -7.32366 0.0402283 4
357 1 20.5012 18.7006 2.65592 -10.0358 -0.92665 1.42008 1 -7.30036 0.0644788 4
358 1 20.5029 20.5029 0.891429 0 0 0 1 -7.01626 0 4
359 1 17.8176 17.8516 3.57404 3.55125 -7.31535 -1.98106 1 -7.36965 0.0436012 4
360 1 19.5929 19.5965 3.59924 -3.67324 2.11329 -4.43509 1 -7.28277 0.0234211 4
361 1 0.901766 0.920061 4.45891 0.628051 6.07326 -3.4784 1 -7.26906 0.0307343 4
362 1 0.884349 2.6565 6.21471 4.90331 -2.705 0.19653 1 -7.33624 0.019543 4
363 1 2.67994 0.858475 6.22608 -2.78596 -1.60834 0.307168 1 -7.28499 0.00649979 4
364 1 2.64521 2.69405 4.46512 -6.25178 0.800262 1.34724 1 -7.3816 0.0258558 4
365 1 3.52663 1.79761 5.29856 -3.29074 -16.1287 -4.60638 1 -7.37619 0.181862 4
366 1 1.7597 3.58087 5.32311 0.449147 -5.2262 1.29364 1 -7.3766 0.0181676 4
367 1 1.78378 1.7754 7.12359 -6.32403 -14.0372 -4.621 1 -7.33343 0.160829 4
368 1 0.885435 0.876504 7.99388 2.68952 -13.524 10.2032 1 -7.31365 0.18314 4
369 1 2.6301 2.66035 8.06618 2.68634 -2.91521 -6.38352 1 -7.29884 0.0351448 4
370 1 3.57507 3.53899 7.13221 6.33482 -5.5309 -4.10279 1 -7.31315 0.0544956 4
651 1 3.5215 -0.0614482 7.11191 3.8337 2.41985 -2.30157 1 -7.36207 0.0160898 4
710 1 -0.0467281 -0.0345349 7.09896 -2.75401 -4.98763 -6.17284 1 -7.34252 0.0439216 4
372 1 4.41567 0.887998 4.4362 -7.04326 -6.32494 0.830119 1 -7.30812 0.056206 4
373 1 4.45098 2.63602 6.23845 1.56227 1.79216 1.37426 1 -7.34757 0.0046938 4
374 1 6.24513 0.886318 6.2428 1.4462 -0.329215 3.21374 1 -7.33316 0.00779777 4
375 1 6.18017 2.69727 4.50297 -7.72953 7.55199 -3.85941 1 -7.23398 0.0819569 4
376 1 7.15914 1.79628 5.35078 -1.11821 -0.0937214 -2.53948 1 -7.32216 0.00479773 4
377 1 8.01931 0.922608 4.48502 10.2431 -1.10277 1.91452 1 -7.32977 0.0683435 4
378 1 8.0118 2.70089 6.23696 -3.08544 1.72408 -6.35138 1 -7.31391 0.0328843 4
379 1 5.31208 3.54375 5.39042 13.5592 6.9888 2.61774 1 -7.37146 0.149101 4
380 1 5.35783 1.76884 7.13658 -6.10414 -2.00274 5.78494 1 -7.31316 0.0465183 4
381 1 4.44488 0.830269 8.06105 3.30935 3.06288 -5.49002 1 -7.31051 0.0314159 4
382 1 6.21319 2.71793 7.99959 0.641397 -4.17488 2.16116 1 -7.36229 0.0140118 4
383 1 8.01539 0.894824 8.02542 3.85488 -0.463745 -0.712662 1 -7.34589 0.0096993 4
384 1 7.08361 3.60621 7.12584 -5.4088 -6.59253 -3.80018 1 -7.33989 0.0542493 4
385 1 5.35733 -0.00129514 5.32885 -3.95389 -1.10686 5.23463 1 -7.38454 0.0275484 4
386 1 9.83153 0.895089 6.2679 0.317904 4.66335 1.05685 1 -7.38743 0.0142939 4
387 1 9.82781 2.68797 4.50888 2.89023 3.42318 2.5971 1 -7.34691 0.0166913 4
388 1 10.724 1.77396 5.37544 1.62632 1.82722 -9.03965 1 -7.33527 0.0545861 4
389 1 11.5941 0.866518 4.45278 1.94146 4.50276 4.59624 1 -7.25697 0.0281147 4
390 1 11.6002 2.65414 6.25549 -3.76221 -0.333045 0.967924 1 -7.33922 0.00946212 4
391 1 8.90312 3.5965 5.38412 -3.93941 1.75766 -8.80759 1 -7.33723 0.0598661 4
392 1 12.4448 3.55766 5.37653 -4.40236 -0.917581 3.65076 1 -7.31807 0.0208829 4
393 1 8.93552 1.79721 7.18078 -0.471456 4.04269 -3.21421 1 -7.31305 0.0167412 4
394 1 9.80704 2.70294 8.03506 -1.03856 -3.34079 -4.3676 1 -7.34848 0.0194915 4
395 1 12.4861 1.71864 7.11246 0.950337 2.62771 7.55498 1 -7.34558 0.0403866 4
396 1 11.6105 0.876352 8.02672 3.46569 6.34223 -1.30334 1 -7.34258 0.0335697 4
397 1 10.687 3.59106 7.13041 -3.12708 1.74698 -8.84737 1 -7.3448 0.056707 4
398 1 13.3638 0.872795 6.24668 -4.61585 2.24026 -8.74083 1 -7.36699 0.0639399 4
399 1 13.372 2.6563 4.48872 -7.57149 -1.93839 2.17035 1 -7.34338 0.0409527 4
400 1 14.2592 1.80523 5.36773 5.83996 -0.111295 4.59459 1 -7.38737 0.0343753 4
401 1 15.1087 0.895954 4.45786 -7.80988 -3.72544 7.05889 1 -7.30476 0.0776172 4
402 1 15.1927 2.63199 6.27365 -1.33839 -2.17894 0.129962 1 -7.28389 0.00408061 4
403 1 16.943 0.893796 6.25294 -0.140885 -6.5494 -2.61269 1 -7.34092 0.0309599 4
404 1 16.9206 2.67564 4.4866 -0.751337 7.76725 -4.42011 1 -7.36761 0.050063 4
405 1 16.0113 3.55982 5.39331 2.45045 -3.94878 0.295302 1 -7.31746 0.0134972 4
406 1 13.3669 2.64452 8.00962 4.07684 2.95708 6.26758 1 -7.29418 0.0402383 4
407 1 16.0657 1.75316 7.15422 0.208738 -0.192098 -0.937659 1 -7.41288 0.000597328 4
408 1 15.1244 0.86161 8.00653 -7.18675 -0.0345 -0.281323 1 -7.35812 0.032198 4
409 1 16.9505 2.63456 8.0248 -2.12043 -8.14479 1.69958 1 -7.32449 0.0458868 4
410 1 14.2126 3.5749 7.16842 2.86603 -2.91441 -1.11144 1 -7.2332 0.0111683 4
695 1 14.2355 -0.0336699 7.13591 0.647638 2.29946 -8.19685 1 -7.33849 0.0453719 4
411 1 21.3927 1.76917 5.344 1.92318 8.97807 -8.47274 1 -7.37494 0.0971556 4
371 1 21.3625 3.49779 7.14006 -2.20749 -1.40834 1.40867 1 -7.29024 0.00550274 4
412 1 17.7816 1.76565 5.35138 -1.5473 -5.08343 1.61162 1 -7.33255 0.0191911 4
413 1 18.7064 0.886757 4.43733 0.754261 6.22078 -0.135936 1 -7.3677 0.0244523 4
414 1 18.7134 2.63773 6.22793 -2.64528 7.33712 0.984093 1 -7.31222 0.0384655 4
415 1 20.4931 0.848173 6.17944 0.16791 -6.9188 -6.84011 1 -7.26861 0.0589344 4
416 1 20.4881 2.67727 4.45664 -7.95493 -1.58709 2.11918 1 -7.35336 0.0437508 4
417 1 19.5988 3.56269 5.36661 8.07246 3.46902 1.46131 1 -7.31543 0.0493796 4
418 1 19.5604 1.75928 7.14214 -0.0679528 2.13803 -0.796954 1 -7.27931 0.00324342 4
419 1 18.6733 0.893961 8.03008 12.7032 4.6949 2.78435 1 -7.34681 0.118987 4
420 1 20.474 2.61733 8.02733 -4.03092 0.565607 -0.214754 1 -7.35951 0.0103412 4
421 1 17.792 3.58316 7.10857 0.0962368 -0.897522 3.30026 1 -7.2817 0.00728643 4
423 1 0.896959 4.46728 4.45074 -3.74864 6.20313 -0.229858 1 -7.37541 0.0327297 4
424 1 0.903353 6.2667 6.27865 -7.6307 0.552236 4.18154 1 -7.27038 0.0473155 4
425 1 2.65558 4.41616 6.25193 0.546093 8.71849 3.24589 1 -7.34923 0.0540553 4
426 1 2.66042 6.21708 4.4296 -1.82081 1.89046 -1.6557 1 -7.40174 0.00599429 4
427 1 3.48317 5.29159 5.29908 4.56294 0.750419 1.75384 1 -7.24927 0.0152242 4
428 1 1.81546 7.10225 5.33926 -9.68838 -4.43156 -10.3199 1 -7.36243 0.136936 4
429 1 0.876863 8.01831 4.47367 2.09752 -3.54156 -8.41652 1 -7.31386 0.0546366 4
430 1 2.6849 8.00647 6.21717 -4.42267 11.4399 5.5631 1 -7.37691 0.112896 4
431 1 1.77994 5.27297 7.15291 -6.20381 5.05979 -2.31039 1 -7.29452 0.043213 4
432 1 0.894375 4.41889 8.05293 3.50279 1.1968 -4.4133 1 -7.31699 0.0206515 4
433 1 2.72032 6.2217 8.04393 14.1644 -5.73807 4.33039 1 -7.28475 0.157043 4
434 1 0.916954 7.96578 8.04059 7.03302 -0.90243 -0.855355 1 -7.34362 0.0317495 4