ITEM: TIMESTEP
49125950
ITEM: NUMBER OF ATOMS
3060
ITEM: BOX BOUNDS pp pp mm
0.0000000000000000e+00 2.1394294200000001e+01
0.0000000000000000e+00 2.1394294200000001e+01
-5.3491084073550004e-03 5.3485735499999997e+01
ITEM: ATOMS id type x y z vx vy vz c_clusts c_atom_pe c_atom_ke c_atom_coord
1 1 0 0 0 0 0 0 1 -3.33407 0 2
2 1 1.78286 1.78286 0 0 0 0 1 -3.30019 0 2
3 1 0.891429 0.891429 0.891429 0 0 0 1 -7.00594 0 4
4 1 0.877013 2.65377 2.7101 2.58325 -7.58602 -0.285272 1 -7.29095 0.0400234 4
5 1 2.65884 0.870614 2.65759 9.3355 0.343569 9.34918 1 -7.30972 0.108723 4
6 1 2.67429 2.67429 0.891429 0 0 0 1 -7.03605 0 4
7 1 3.56572 0 0 0 0 0 1 -3.32337 0 2
8 1 3.54793 1.74439 1.74526 -0.636625 -1.68015 4.25748 1 -7.35195 0.0132915 4
9 1 0 3.56572 0 0 0 0 1 -3.30948 0 2
10 1 1.77361 3.54823 1.77598 3.929 1.10039 1.99079 1 -7.2773 0.0128289 4
11 1 3.56572 3.56572 0 0 0 0 1 -3.33611 0 2
12 1 1.82378 1.83471 3.57186 -5.22326 0.225829 -3.75352 1 -7.30606 0.0257824 4
13 1 3.62836 3.51398 3.62363 -0.793056 -8.94061 1.18524 1 -7.26602 0.0510192 4
292 1 1.79587 0.00968006 1.77892 5.33631 -0.933388 -3.27153 1 -7.35757 0.0249284 4
56 1 -0.00919422 3.57812 3.57831 -7.1628 -9.36482 -0.572196 1 -7.35222 0.0867244 4
55 1 -0.0138609 1.81547 1.77379 0.328072 -3.18388 0.811193 1 -7.34268 0.00678616 4
291 1 3.55261 -0.0342207 3.56856 -0.443421 5.47452 2.74693 1 -7.28928 0.0234733 4
350 1 0.0266453 0.0453884 3.52739 1.90158 0.683488 2.33209 1 -7.31913 0.00592663 4
14 1 5.34857 1.78286 0 0 0 0 1 -3.33289 0 2
15 1 4.45714 0.891429 0.891429 0 0 0 1 -7.0266 0 4
16 1 4.45686 2.60571 2.6903 1.35482 4.09556 -4.54997 1 -7.34342 0.0244684 4
17 1 6.28201 0.879024 2.66137 1.80018 -3.97632 -3.18843 1 -7.27703 0.018186 4
18 1 6.24 2.67429 0.891429 0 0 0 1 -7.01181 0 4
19 1 7.13143 0 0 0 0 0 1 -3.33753 0 2
20 1 7.15501 1.7666 1.74996 -4.38882 -1.50078 2.95033 1 -7.36093 0.0188088 4
21 1 8.02286 0.891429 0.891429 0 0 0 1 -7.02922 0 4
22 1 8.07152 2.6709 2.65176 7.03108 -3.92812 1.60047 1 -7.29121 0.0419687 4
23 1 5.34339 3.52818 1.80519 0.568691 -0.827047 -8.28221 1 -7.30725 0.0433224 4
24 1 7.13143 3.56572 0 0 0 0 1 -3.33656 0 2
25 1 5.35518 1.73755 3.61792 -9.17715 3.51261 2.88403 1 -7.29688 0.0652776 4
26 1 7.1197 3.5306 3.55327 3.57005 4.29771 5.42072 1 -7.29961 0.0377189 4
306 1 7.12388 -0.061906 3.60686 -9.4582 -0.3615 8.59201 1 -7.24877 0.101711 4
28 1 8.91429 1.78286 0 0 0 0 1 -3.32506 0 2
29 1 9.77322 0.840319 2.70404 -8.27412 8.26277 5.00716 1 -7.29232 0.100712 4
30 1 9.80572 2.67429 0.891429 0 0 0 1 -7.03679 0 4
31 1 10.6971 0 0 0 0 0 1 -3.32479 0 2
32 1 10.6754 1.78225 1.76505 4.9126 3.2192 0.422431 1 -7.31673 0.0215829 4
33 1 12.48 1.78286 0 0 0 0 1 -3.33611 0 2
34 1 11.5886 0.891429 0.891429 0 0 0 1 -7.00516 0 4
35 1 11.5894 2.67946 2.66249 3.85174 -4.33924 -1.82634 1 -7.3118 0.02303 4
36 1 8.92153 3.53883 1.78348 -7.13305 5.32906 -2.69822 1 -7.41175 0.0538771 4
37 1 10.6971 3.56572 0 0 0 0 1 -3.33574 0 2
38 1 12.4895 3.56039 1.77609 -1.39587 -4.64007 -8.11635 1 -7.3248 0.0556162 4
39 1 8.90389 1.75105 3.60772 4.30656 2.85892 -1.76872 1 -7.34814 0.0185783 4
40 1 12.5297 1.76552 3.51332 1.48556 -0.619572 5.89567 1 -7.25606 0.0232474 4
41 1 10.7283 3.57404 3.58184 -0.629507 -2.43662 -0.498687 1 -7.35934 0.00409685 4
319 1 10.6579 -0.0584136 3.569 -2.80646 5.31633 0.746125 1 -7.30859 0.0228407 4
42 1 13.3473 0.876884 2.65342 -0.634464 -4.92748 -6.73009 1 -7.40019 0.0435553 4
43 1 13.3714 2.67429 0.891429 0 0 0 1 -6.9979 0 4
44 1 14.2629 0 0 0 0 0 1 -3.32698 0 2
45 1 14.2734 1.75835 1.78537 0.769606 4.28104 1.52744 1 -7.36805 0.0132283 4
46 1 16.0457 1.78286 0 0 0 0 1 -3.34483 0 2
47 1 15.1543 0.891429 0.891429 0 0 0 1 -7.02941 0 4
48 1 15.1162 2.65283 2.64479 0.230667 -5.05072 -5.89125 1 -7.33566 0.0375135 4
49 1 16.9329 0.907205 2.65116 7.55972 -3.46334 -0.590862 1 -7.31832 0.0432544 4
50 1 16.9371 2.67429 0.891429 0 0 0 1 -7.00826 0 4
51 1 14.2629 3.56572 0 0 0 0 1 -3.32208 0 2
52 1 16.0342 3.56459 1.76982 -6.86268 5.46776 -1.92617 1 -7.35327 0.0502317 4
53 1 16.0241 1.73975 3.57361 6.77315 -5.49646 2.07648 1 -7.28248 0.0500421 4
54 1 14.278 3.53994 3.55649 0.5213 -3.46624 3.34529 1 -7.35051 0.014613 4
336 1 14.2283 -0.0147778 3.55442 -8.3852 1.19047 6.70864 1 -7.33089 0.0726587 4
57 1 17.8286 0 0 0 0 0 1 -3.3433 0 2
58 1 17.8408 1.82095 1.80723 8.07739 -4.18092 0.970955 1 -7.34449 0.0520765 4
59 1 19.6114 1.78286 0 0 0 0 1 -3.32697 0 2
60 1 18.72 0.891429 0.891429 0 0 0 1 -6.98287 0 4
61 1 18.7932 2.66185 2.68097 -2.98483 -5.15142 0.238292 1 -7.33035 0.022098 4
62 1 20.5075 0.913261 2.67791 -1.40145 -6.135 5.55577 1 -7.31632 0.0438617 4
63 1 20.5029 2.67429 0.891429 0 0 0 1 -7.04553 0 4
64 1 17.8286 3.56572 0 0 0 0 1 -3.32982 0 2
65 1 19.6339 3.56664 1.76494 -4.84899 -1.53698 -4.78837 1 -7.38304 0.0303765 4
66 1 19.6197 1.77276 3.58437 2.88573 -5.40303 0.461974 1 -7.34621 0.0234864 4
67 1 17.87 3.55585 3.56977 -0.638774 -0.756574 -1.71643 1 -7.29851 0.00244401 4
68 1 19.6238 0.0193087 1.76133 -2.20862 2.27498 -2.1201 1 -7.3456 0.00905528 4
349 1 17.8279 -0.000415459 3.57094 -1.3958 -4.09995 3.89743 1 -7.40129 0.02113 4
69 1 1.78286 5.34857 0 0 0 0 1 -3.32047 0 2
70 1 0.891429 4.45714 0.891429 0 0 0 1 -7.02424 0 4
71 1 0.925 6.1888 2.68267 -0.241431 9.34383 5.95123 1 -7.3144 0.0764231 4
72 1 2.70782 4.42186 2.72934 2.41493 7.75328 -4.41737 1 -7.25798 0.0531916 4
73 1 2.67429 6.24 0.891429 0 0 0 1 -6.99407 0 4
74 1 3.58481 5.30653 1.78716 5.32349 -3.54522 -2.07221 1 -7.34718 0.0281351 4
75 1 0 7.13143 0 0 0 0 1 -3.33258 0 2
76 1 1.76078 7.08975 1.76023 3.23137 0.607572 9.29893 1 -7.32911 0.0605503 4
77 1 0.891429 8.02286 0.891429 0 0 0 1 -7.03429 0 4
78 1 2.68166 8.04824 2.65032 -0.426251 -2.73162 1.13171 1 -7.28743 0.00555466 4
79 1 3.56572 7.13143 0 0 0 0 1 -3.3408 0 2
80 1 1.78115 5.32012 3.5721 4.27689 6.62216 0.0187095 1 -7.42691 0.0386807 4
81 1 3.54587 7.14181 3.59301 -1.80906 -3.24544 0.34172 1 -7.26139 0.00866565 4
128 1 -0.0252841 5.33187 1.7558 3.10911 3.61366 2.74639 1 -7.32255 0.0188395 4
82 1 -0.0397665 7.1056 3.58222 -6.02092 3.49742 0.868188 1 -7.27778 0.0306466 4
83 1 5.34857 5.34857 0 0 0 0 1 -3.35885 0 2
84 1 4.45714 4.45714 0.891429 0 0 0 1 -6.99979 0 4
85 1 4.45068 6.20951 2.67255 -4.23759 9.35237 0.571768 1 -7.27626 0.0658221 4
86 1 6.25505 4.47658 2.66511 -0.420478 -3.89009 2.95386 1 -7.31677 0.0149599 4
87 1 6.24 6.24 0.891429 0 0 0 1 -7.05047 0 4
88 1 7.15402 5.37747 1.74386 -0.361937 -7.27411 5.83023 1 -7.33437 0.054173 4
89 1 8.02286 4.45714 0.891429 0 0 0 1 -7.0094 0 4
90 1 8.07369 6.23617 2.68964 1.67684 -3.48034 1.47233 1 -7.3162 0.0106387 4
91 1 5.36468 7.13545 1.77641 -4.99328 -2.2943 -0.750284 1 -7.34271 0.0191456 4
92 1 4.45714 8.02286 0.891429 0 0 0 1 -7.0057 0 4
93 1 6.17433 8.01788 2.65085 4.42164 -2.85725 -5.26195 1 -7.33199 0.0344843 4
94 1 7.13143 7.13143 0 0 0 0 1 -3.29436 0 2
95 1 8.02286 8.02286 0.891429 0 0 0 1 -6.95822 0 4
96 1 5.39573 5.38086 3.53323 -4.34647 -3.49219 -1.31884 1 -7.35895 0.0204321 4
97 1 7.13785 7.14936 3.58717 -8.85138 5.84971 1.60405 1 -7.28208 0.0716656 4
98 1 8.91429 5.34857 0 0 0 0 1 -3.31988 0 2
99 1 9.79594 4.43555 2.68205 0.38304 1.40882 2.09751 1 -7.35715 0.0040651 4
100 1 9.80572 6.24 0.891429 0 0 0 1 -7.00386 0 4
101 1 10.6799 5.33185 1.78117 -6.49657 5.53667 0.691862 1 -7.35105 0.0456481 4
102 1 12.48 5.34857 0 0 0 0 1 -3.33859 0 2
103 1 11.5886 4.45714 0.891429 0 0 0 1 -7.01733 0 4
104 1 11.5879 6.21602 2.71365 -7.55593 -2.66505 3.92478 1 -7.3043 0.0495441 4
105 1 8.92432 7.13271 1.81129 -5.13272 2.0914 9.37721 1 -7.33326 0.0738514 4
106 1 9.85547 8.0732 2.64096 -0.332978 4.2107 4.62985 1 -7.30828 0.0244466 4
107 1 10.6971 7.13143 0 0 0 0 1 -3.35145 0 2
108 1 12.495 7.11081 1.81072 -3.01919 8.68362 -5.08151 1 -7.34799 0.06868 4
109 1 11.5886 8.02286 0.891429 0 0 0 1 -6.97531 0 4
110 1 8.93486 5.30274 3.58175 4.89853 1.11298 12.2773 1 -7.41831 0.109526 4
111 1 12.4754 5.32717 3.60435 4.19632 -8.48563 0.685207 1 -7.31882 0.0560709 4
112 1 10.7147 7.17747 3.58157 1.22308 2.07213 -1.3402 1 -7.28884 0.0047216 4
113 1 13.3797 4.44769 2.69916 -2.66207 13.4975 1.33684 1 -7.28544 0.118918 4
114 1 13.3714 6.24 0.891429 0 0 0 1 -7.03706 0 4
115 1 14.2424 5.37419 1.72517 7.93803 -3.60736 0.504767 1 -7.27884 0.0474788 4
116 1 16.0457 5.34857 0 0 0 0 1 -3.32857 0 2
117 1 15.1543 4.45714 0.891429 0 0 0 1 -7.02756 0 4
118 1 15.1506 6.26612 2.67574 -9.72652 -3.62448 3.59731 1 -7.32845 0.075116 4
119 1 16.9602 4.43099 2.70245 -5.52449 1.20321 7.17306 1 -7.30268 0.0519231 4
120 1 16.9371 6.24 0.891429 0 0 0 1 -7.04945 0 4
121 1 13.3846 8.00534 2.69444 -0.755674 4.74725 -0.48958 1 -7.29968 0.0145318 4
122 1 14.2629 7.13143 0 0 0 0 1 -3.33965 0 2
123 1 16.0771 7.14851 1.75193 2.7212 -4.50528 -4.58589 1 -7.36318 0.0303326 4
124 1 15.1543 8.02286 0.891429 0 0 0 1 -7.01347 0 4
125 1 16.9623 7.98934 2.64761 2.21541 -5.20192 -11.5303 1 -7.29412 0.102648 4
126 1 16.045 5.39442 3.54638 8.2572 5.94845 -4.79799 1 -7.31048 0.0787905 4
127 1 14.2853 7.10767 3.5936 1.62355 4.38871 -0.212977 1 -7.36671 0.0136573 4
129 1 17.8363 5.34839 1.76112 0.942165 3.05734 3.52109 1 -7.33431 0.0140874 4
130 1 19.6114 5.34857 0 0 0 0 1 -3.29766 0 2
131 1 18.72 4.45714 0.891429 0 0 0 1 -7.03428 0 4
132 1 18.7301 6.22144 2.68062 2.83651 -2.23917 7.72562 1 -7.33136 0.0452783 4
133 1 20.4975 4.45412 2.65712 2.47245 -0.423628 5.47549 1 -7.38424 0.0225775 4
134 1 20.5029 6.24 0.891429 0 0 0 1 -7.02261 0 4
135 1 17.8286 7.13143 0 0 0 0 1 -3.31562 0 2
136 1 19.5607 7.11711 1.7808 -1.79438 -4.98645 5.44984 1 -7.3363 0.0359671 4
137 1 18.72 8.02286 0.891429 0 0 0 1 -7.00563 0 4
138 1 20.4711 8.00911 2.67941 0.451287 -7.27955 4.55459 1 -7.31485 0.0460221 4
139 1 19.6406 5.33807 3.57274 -0.67562 -2.08186 -6.22345 1 -7.3767 0.0270892 4
140 1 17.8665 7.15951 3.58986 -5.67688 -4.89827 -3.60417 1 -7.30685 0.0430782 4
141 1 1.78286 8.91429 0 0 0 0 1 -3.33548 0 2
142 1 0.909853 9.79025 2.69376 1.9715 -2.60314 9.73535 1 -7.33735 0.0656287 4
143 1 2.67429 9.80572 0.891429 0 0 0 1 -7.02045 0 4
144 1 3.54667 8.92217 1.76241 3.34891 -4.36435 3.02049 1 -7.41743 0.024515 4
145 1 0 10.6971 0 0 0 0 1 -3.33348 0 2
146 1 1.77098 10.7052 1.74747 -2.87417 -2.86735 -7.86918 1 -7.33993 0.0488023 4
147 1 1.78286 12.48 0 0 0 0 1 -3.30194 0 2
148 1 0.891429 11.5886 0.891429 0 0 0 1 -7.0537 0 4
149 1 2.67991 11.579 2.63867 -0.162137 2.03943 -2.71972 1 -7.39141 0.00720921 4
150 1 3.56572 10.6971 0 0 0 0 1 -3.31745 0 2
151 1 3.53269 12.4532 1.75938 -9.50361 6.66351 0.451307 1 -7.29429 0.0839806 4
152 1 1.80113 8.92935 3.57674 0.880822 -1.97984 -7.14029 1 -7.34948 0.0346563 4
153 1 1.83937 12.491 3.53461 -9.11111 1.15883 2.95226 1 -7.359 0.0579299 4
154 1 3.56215 10.7029 3.49267 -3.21851 4.23742 4.88108 1 -7.31664 0.032453 4
205 1 0.021523 8.88733 1.77539 7.79864 -5.71945 -1.6322 1 -7.34775 0.0598743 4
204 1 0.0274687 12.5029 1.75508 12.8013 -1.76385 -1.01066 1 -7.34424 0.104571 4
155 1 5.34857 8.91429 0 0 0 0 1 -3.31311 0 2
156 1 4.43483 9.79961 2.64924 -5.86398 -7.27698 1.48875 1 -7.33618 0.0557426 4
157 1 6.24 9.80572 0.891429 0 0 0 1 -7.00591 0 4
158 1 7.04606 8.88546 1.77732 -6.69837 -0.671886 1.65396 1 -7.31172 0.0299108 4
159 1 7.98987 9.78663 2.62287 1.96512 -2.98084 -1.69943 1 -7.23465 0.00973176 4
160 1 5.37369 10.6867 1.79165 1.05496 -6.21375 -0.61749 1 -7.33881 0.0249623 4
161 1 5.34857 12.48 0 0 0 0 1 -3.34468 0 2
162 1 4.45714 11.5886 0.891429 0 0 0 1 -6.96199 0 4
163 1 6.23828 11.6102 2.6664 -2.58258 0.97917 0.58653 1 -7.37223 0.00496229 4
164 1 7.13143 10.6971 0 0 0 0 1 -3.35895 0 2
165 1 7.11227 12.4807 1.80801 -0.27646 4.56699 -0.0865846 1 -7.38138 0.0130345 4
166 1 8.02286 11.5886 0.891429 0 0 0 1 -7.01128 0 4
167 1 5.30628 8.91341 3.58806 -0.802606 7.15476 -4.10038 1 -7.39146 0.0427283 4
168 1 5.31536 12.4826 3.54975 -4.68996 -1.29974 -0.409431 1 -7.3395 0.0148465 4
169 1 7.10295 10.7195 3.56493 -1.43185 4.80258 0.664378 1 -7.3159 0.0159069 4
170 1 8.91429 8.91429 0 0 0 0 1 -3.35625 0 2
171 1 9.80572 9.80572 0.891429 0 0 0 1 -6.96415 0 4
172 1 10.717 8.96063 1.77875 13.0349 -0.483458 6.91946 1 -7.38452 0.135702 4
173 1 12.48 8.91429 0 0 0 0 1 -3.33085 0 2
174 1 11.6336 9.82477 2.69664 4.31742 2.48802 0.917566 1 -7.37417 0.0159791 4
175 1 8.86916 10.7388 1.78173 -4.07851 -1.94089 0.444696 1 -7.29109 0.0128214 4
176 1 8.91429 12.48 0 0 0 0 1 -3.34419 0 2
177 1 9.83482 11.6054 2.66535 3.21407 0.358138 3.07279 1 -7.29824 0.0123867 4
178 1 10.6971 10.6971 0 0 0 0 1 -3.33411 0 2
179 1 10.7407 12.4755 1.76906 3.67739 6.12408 -4.03842 1 -7.36512 0.0419119 4
180 1 12.511 10.7136 1.78564 -3.77999 2.94846 1.09576 1 -7.36772 0.0150518 4
181 1 12.48 12.48 0 0 0 0 1 -3.32011 0 2
182 1 11.5886 11.5886 0.891429 0 0 0 1 -7.03163 0 4
183 1 8.90408 8.93205 3.56385 0.173042 0.851887 0.530029 1 -7.30141 0.000645198 4
184 1 12.5057 8.94402 3.62078 -3.35657 7.00144 2.91644 1 -7.36063 0.0428181 4
185 1 8.91834 12.5183 3.54424 1.33982 -0.952315 1.58605 1 -7.28419 0.00324755 4
186 1 10.7242 10.7061 3.54308 2.60989 -2.5793 -0.231384 1 -7.38394 0.00841387 4
187 1 12.5096 12.5481 3.5887 0.724354 -3.58378 -3.90262 1 -7.32851 0.0178006 4
188 1 13.3714 9.80572 0.891429 0 0 0 1 -7.01949 0 4
189 1 14.264 8.90967 1.78805 -4.99002 -0.201592 -3.10662 1 -7.37295 0.021531 4
190 1 16.0457 8.91429 0 0 0 0 1 -3.34579 0 2
191 1 15.1746 9.81668 2.64445 3.7922 9.41939 -6.93866 1 -7.27089 0.0941424 4
192 1 16.9371 9.80572 0.891429 0 0 0 1 -7.00556 0 4
193 1 13.3842 11.6087 2.66188 2.49685 1.62724 -3.89128 1 -7.28026 0.0149533 4
194 1 14.2629 10.6971 0 0 0 0 1 -3.33924 0 2
195 1 14.243 12.4992 1.76554 -2.33666 5.44048 4.08526 1 -7.32689 0.0322094 4
196 1 16.0869 10.7554 1.77152 -5.5796 0.720846 -2.89725 1 -7.31526 0.0249254 4
197 1 16.0457 12.48 0 0 0 0 1 -3.3036 0 2
198 1 15.1543 11.5886 0.891429 0 0 0 1 -7.02066 0 4
199 1 16.9616 11.5563 2.72109 1.10507 0.551133 -3.87756 1 -7.34616 0.0103076 4
200 1 16.0254 8.88377 3.57803 -1.93352 9.68392 -4.30275 1 -7.29847 0.0722204 4
201 1 14.3113 10.6983 3.57775 -2.19065 1.52585 6.2625 1 -7.32485 0.0288471 4
202 1 16.06 12.4812 3.59118 -7.12512 0.2698 1.84529 1 -7.33281 0.0337636 4
203 1 21.4556 10.71 3.57129 -7.13576 -7.25646 5.55033 1 -7.32806 0.0836425 4
206 1 17.8482 8.94472 1.78661 -4.97013 -3.76955 -1.57606 1 -7.31364 0.0257657 4
207 1 19.6114 8.91429 0 0 0 0 1 -3.34095 0 2
208 1 18.7525 9.81726 2.72283 6.76008 -0.82821 -2.83306 1 -7.30981 0.0338668 4
209 1 20.5029 9.80572 0.891429 0 0 0 1 -6.99167 0 4
210 1 17.8286 10.6971 0 0 0 0 1 -3.3057 0 2
211 1 17.8246 12.4618 1.76216 1.56906 -8.20116 -2.87225 1 -7.31643 0.0485311 4
212 1 19.6283 10.7043 1.81315 -10.0927 -1.44104 6.03338 1 -7.34388 0.0873521 4
213 1 19.6114 12.48 0 0 0 0 1 -3.33572 0 2
214 1 18.72 11.5886 0.891429 0 0 0 1 -7.01524 0 4
215 1 20.5244 11.6256 2.68868 -1.48847 -9.51885 -3.25019 1 -7.28065 0.0643513 4
216 1 19.6526 8.90868 3.61707 0.976108 -8.49538 2.61885 1 -7.29641 0.0497833 4
217 1 17.8014 10.6818 3.60825 -5.87433 -3.44711 3.45026 1 -7.34388 0.0362841 4
218 1 19.5994 12.4704 3.58775 0.837571 -1.05285 -2.95055 1 -7.34631 0.00654527 4
219 1 0.92022 13.3682 2.65433 -1.97576 -4.22219 -3.60152 1 -7.36554 0.0215991 4
220 1 2.67429 13.3714 0.891429 0 0 0 1 -7.02061 0 4
221 1 0 14.2629 0 0 0 0 1 -3.32282 0 2
222 1 1.78312 14.256 1.76239 4.47322 -4.05146 -1.2974 1 -7.34875 0.0237189 4
223 1 1.78286 16.0457 0 0 0 0 1 -3.3276 0 2
224 1 0.891429 15.1543 0.891429 0 0 0 1 -7.04276 0 4
225 1 0.873036 16.9229 2.68458 1.90672 0.311891 -0.05622 1 -7.34487 0.0023254 4
226 1 2.69013 15.1203 2.68325 -0.0327861 -6.70493 -4.34851 1 -7.31222 0.0397523 4
227 1 2.67429 16.9371 0.891429 0 0 0 1 -7.04312 0 4
228 1 3.56572 14.2629 0 0 0 0 1 -3.34506 0 2
229 1 3.56404 16.0677 1.77106 6.4697 -9.14242 7.32944 1 -7.35343 0.111515 4
230 1 1.78111 16.0539 3.56998 2.34037 -1.84262 3.51954 1 -7.3382 0.0132326 4
231 1 3.56809 14.2379 3.5309 2.17786 8.34161 4.06967 1 -7.34105 0.0565709 4
233 1 0.00165081 16.0259 1.74474 5.61077 3.34795 0.886365 1 -7.34605 0.0270601 4
232 1 0.00309434 14.2364 3.48185 3.43966 2.3368 -3.14078 1 -7.36714 0.0169029 4
234 1 4.49217 13.3773 2.65007 -3.30766 2.97346 -4.7704 1 -7.29778 0.0264773 4
235 1 6.24 13.3714 0.891429 0 0 0 1 -7.01866 0 4
236 1 7.98998 13.3861 2.66157 -4.12117 -4.36804 -3.49349 1 -7.37784 0.0300435 4
237 1 5.37801 14.2656 1.77079 4.6059 -0.5001 3.84034 1 -7.38265 0.0225397 4
238 1 5.34857 16.0457 0 0 0 0 1 -3.31855 0 2
239 1 4.45714 15.1543 0.891429 0 0 0 1 -6.97888 0 4
240 1 4.46799 16.9295 2.65784 0.595266 -5.58183 -4.99221 1 -7.29506 0.0351256 4
241 1 6.21394 15.1947 2.68325 4.95309 3.21168 -2.62304 1 -7.2864 0.0259728 4
242 1 6.24 16.9371 0.891429 0 0 0 1 -6.99882 0 4
243 1 7.13143 14.2629 0 0 0 0 1 -3.34681 0 2
244 1 7.16505 16.0617 1.78069 -3.33229 1.47376 -4.0419 1 -7.2988 0.018432 4
245 1 8.02286 15.1543 0.891429 0 0 0 1 -7.03426 0 4
246 1 8.07442 16.9414 2.66968 -2.79082 -1.87812 -9.44714 1 -7.33847 0.0625939 4
247 1 5.34528 16.0798 3.56124 -7.69751 -4.2069 -3.74773 1 -7.40313 0.0566377 4
248 1 7.14305 14.2676 3.57433 -2.16465 -2.66245 5.07568 1 -7.30655 0.0233639 4
249 1 9.80572 13.3714 0.891429 0 0 0 1 -6.99253 0 4
250 1 11.6069 13.3636 2.70492 -6.40118 10.9613 0.0684593 1 -7.29628 0.100292 4
251 1 8.89434 14.2845 1.77401 -8.71174 3.50177 0.986517 1 -7.36224 0.0554769 4
252 1 8.91429 16.0457 0 0 0 0 1 -3.32837 0 2
253 1 9.80413 15.1509 2.67777 -5.68176 -7.41316 -5.04745 1 -7.3147 0.0701561 4
254 1 9.80572 16.9371 0.891429 0 0 0 1 -7.01222 0 4
255 1 10.6971 14.2629 0 0 0 0 1 -3.32559 0 2
256 1 10.6919 16.06 1.78142 -9.40072 -0.691429 -2.14305 1 -7.38871 0.0581622 4
257 1 12.4695 14.3012 1.77241 -0.125521 1.38086 5.47583 1 -7.32492 0.0198599 4
258 1 12.48 16.0457 0 0 0 0 1 -3.32208 0 2
259 1 11.5886 15.1543 0.891429 0 0 0 1 -7.04764 0 4
260 1 11.551 16.9451 2.69183 -6.4576 0.829541 -4.62758 1 -7.2893 0.0397128 4
261 1 8.92295 16.0186 3.55264 0.91315 -2.36085 2.18238 1 -7.36384 0.00695264 4
262 1 10.7126 14.2569 3.62657 -5.77279 -2.95554 13.454 1 -7.35195 0.138845 4
263 1 12.5192 16.0655 3.58855 2.82994 -9.54609 -3.31045 1 -7.3046 0.0685263 4
264 1 13.3714 13.3714 0.891429 0 0 0 1 -7.02131 0 4
265 1 15.1614 13.3728 2.72481 2.47067 -9.60565 -4.43019 1 -7.35746 0.0734459 4
266 1 16.9371 13.3714 0.891429 0 0 0 1 -7.02545 0 4
267 1 13.3805 15.1684 2.67379 -1.9495 -4.11793 -5.37367 1 -7.34867 0.0308936 4
268 1 13.3714 16.9371 0.891429 0 0 0 1 -7.04955 0 4
269 1 14.2629 14.2629 0 0 0 0 1 -3.32378 0 2
270 1 14.2694 16.0294 1.744 -6.58993 -0.471916 4.91282 1 -7.32623 0.0421916 4
271 1 16.0295 14.271 1.81388 0.770684 4.20077 4.29756 1 -7.32382 0.0228489 4
272 1 16.0457 16.0457 0 0 0 0 1 -3.34595 0 2
273 1 15.1543 15.1543 0.891429 0 0 0 1 -7.03266 0 4
274 1 15.1587 16.9066 2.68761 -4.28092 -0.734945 6.02275 1 -7.29229 0.0343206 4
275 1 16.8989 15.1699 2.69666 -5.48619 -1.64295 3.39551 1 -7.36526 0.0275903 4
276 1 16.9371 16.9371 0.891429 0 0 0 1 -7.04328 0 4
277 1 14.284 14.2868 3.5831 -1.99663 -0.0702512 5.72346 1 -7.33265 0.0228738 4
278 1 16.0551 16.0227 3.56761 -1.16221 -0.391969 12.2636 1 -7.31447 0.0945468 4
279 1 18.6874 13.3332 2.68268 1.24893 6.80113 2.80341 1 -7.34602 0.0346531 4
280 1 20.5029 13.3714 0.891429 0 0 0 1 -7.0184 0 4
281 1 17.8286 14.2629 0 0 0 0 1 -3.32041 0 2
282 1 17.7939 16.059 1.77846 6.4824 6.64754 3.22445 1 -7.33463 0.0601316 4
283 1 19.6105 14.2121 1.7949 4.14885 9.18872 2.43561 1 -7.33175 0.0669592 4
284 1 19.6114 16.0457 0 0 0 0 1 -3.32596 0 2
285 1 18.72 15.1543 0.891429 0 0 0 1 -6.96983 0 4
286 1 18.7416 16.9261 2.68999 1.40598 -0.570648 -6.99329 1 -7.35688 0.0318735 4
287 1 20.526 15.0975 2.6554 1.58397 -1.49728 -8.5532 1 -7.25265 0.048492 4
288 1 20.5029 16.9371 0.891429 0 0 0 1 -7.05246 0 4
289 1 17.8063 14.2434 3.57509 -5.2734 -2.65969 -0.687087 1 -7.32734 0.0220058 4
290 1 19.6039 16.0454 3.60551 2.00827 6.68575 -2.7661 1 -7.30557 0.0350947 4
293 1 0 17.8286 0 0 0 0 1 -3.32308 0 2
294 1 1.75191 17.8243 1.77787 -1.0328 5.16645 -4.70753 1 -7.28779 0.0310713 4
295 1 1.78286 19.6114 0 0 0 0 1 -3.34068 0 2
296 1 0.891429 18.72 0.891429 0 0 0 1 -7.02002 0 4
297 1 0.892521 20.4946 2.65606 -8.71378 3.50479 1.53643 1 -7.31179 0.0563757 4
298 1 2.67253 18.7572 2.74135 -1.55137 0.857748 -0.330384 1 -7.31125 0.0020239 4
299 1 2.67429 20.5029 0.891429 0 0 0 1 -7.03162 0 4
300 1 3.56572 17.8286 0 0 0 0 1 -3.30986 0 2
301 1 3.51312 19.6198 1.76958 0.232294 7.76294 9.44302 1 -7.30113 0.0930451 4
302 1 1.77313 19.6307 3.59988 3.7891 -6.6578 -12.8366 1 -7.38689 0.139088 4
303 1 3.55139 17.8941 3.60695 0.201382 1.43302 -7.98975 1 -7.29657 0.0410367 4
305 1 -0.0386085 19.6083 1.75195 -5.11866 -1.89751 -1.98662 1 -7.38069 0.0210056 4
27 1 5.34863 21.3888 1.77742 -5.89357 -2.57108 -0.77823 1 -7.37186 0.0261109 4
307 1 5.34613 17.7945 1.7622 -3.29431 4.23173 -8.18773 1 -7.35091 0.0596277 4
308 1 5.34857 19.6114 0 0 0 0 1 -3.32919 0 2
309 1 4.45714 18.72 0.891429 0 0 0 1 -6.98944 0 4
310 1 4.48739 20.5178 2.62345 2.96643 1.57357 -0.134163 1 -7.29665 0.00702958 4
311 1 6.27011 18.6839 2.66552 2.17359 -0.50266 -1.05278 1 -7.30701 0.00378779 4
312 1 6.24 20.5029 0.891429 0 0 0 1 -7.01913 0 4
313 1 7.13143 17.8286 0 0 0 0 1 -3.32053 0 2
314 1 7.11819 19.5845 1.77973 0.990043 3.67016 4.55256 1 -7.3544 0.0218945 4
315 1 8.02286 18.72 0.891429 0 0 0 1 -7.01607 0 4
316 1 8.03302 20.4573 2.68251 -4.59662 -1.49794 -5.30978 1 -7.30153 0.0320964 4
317 1 5.38203 19.6186 3.52711 -8.90387 4.25692 -1.04766 1 -7.34326 0.0613076 4
318 1 7.12816 17.7808 3.60098 7.51078 1.53466 3.38285 1 -7.33845 0.043701 4
320 1 8.9183 21.3815 1.77798 2.08983 0.00309977 -3.04499 1 -7.36464 0.00848951 4
321 1 12.4665 21.3759 1.77606 -3.35521 -3.61295 1.21482 1 -7.41694 0.0160503 4
322 1 8.91303 17.8206 1.78173 -9.21787 -2.19103 -3.9482 1 -7.40302 0.0655776 4
323 1 8.91429 19.6114 0 0 0 0 1 -3.33762 0 2
324 1 9.81952 18.6962 2.64863 -7.1592 4.48662 1.51458 1 -7.31235 0.045859 4
325 1 9.80572 20.5029 0.891429 0 0 0 1 -7.04709 0 4
326 1 10.6971 17.8286 0 0 0 0 1 -3.32595 0 2
327 1 10.6672 19.622 1.75762 -1.35799 -0.101198 -3.15566 1 -7.3466 0.00735245 4
328 1 12.496 17.8215 1.77561 -2.54215 4.19784 -6.13694 1 -7.28898 0.0384325 4
329 1 12.48 19.6114 0 0 0 0 1 -3.32583 0 2
330 1 11.5886 18.72 0.891429 0 0 0 1 -6.96671 0 4
331 1 11.5881 20.4913 2.64927 7.59105 -1.60022 -5.33916 1 -7.36749 0.0552038 4
332 1 8.90319 19.5892 3.58239 6.10826 5.63188 0.653853 1 -7.31624 0.0432315 4
333 1 10.7421 17.857 3.57463 -8.13312 2.62576 -5.17363 1 -7.34363 0.0621236 4
334 1 12.4687 19.6127 3.56004 -5.8877 2.79449 4.54551 1 -7.36257 0.0392974 4
335 1 16.0508 21.3831 1.76161 0.0290455 0.103287 2.72137 1 -7.34814 0.00461675 4
337 1 13.3988 18.7571 2.66285 -4.29224 -3.23766 -6.60138 1 -7.31005 0.0451159 4
338 1 13.3714 20.5029 0.891429 0 0 0 1 -7.03257 0 4
339 1 14.2629 17.8286 0 0 0 0 1 -3.33593 0 2
340 1 14.2768 19.6286 1.76578 -3.73433 -2.25892 -3.88411 1 -7.38639 0.021246 4
341 1 16.0888 17.8329 1.76297 -4.58991 -1.99561 0.829426 1 -7.30661 0.0160198 4
342 1 16.0457 19.6114 0 0 0 0 1 -3.31826 0 2
343 1 15.1543 18.72 0.891429 0 0 0 1 -7.01672 0 4
344 1 15.163 20.4773 2.65888 4.66043 -1.92821 -0.0706396 1 -7.34067 0.0158361 4
345 1 16.9545 18.7151 2.69471 -4.9929 0.0473575 -2.21292 1 -7.32965 0.0185659 4
346 1 16.9371 20.5029 0.891429 0 0 0 1 -6.98744 0 4
347 1 14.2922 17.7942 3.53419 -1.77349 7.33676 3.74013 1 -7.32506 0.0441685 4
348 1 16.076 19.6058 3.55595 -2.71519 0.412417 -0.374715 1 -7.38062 0.00478194 4
304 1 21.3725 17.8019 3.58124 -1.97029 -2.46032 -1.02623 1 -7.349 0.00683946 4
351 1 17.8286 17.8286 0 0 0 0 1 -3.33103 0 2
352 1 17.8636 19.6124 1.82118 2.44207 2.14525 -1.97324 1 -7.30804 0.00899994 4
353 1 19.6105 17.7805 1.77954 -1.40185 5.43227 2.60775 1 -7.32644 0.0238234 4
354 1 19.6114 19.6114 0 0 0 0 1 -3.33279 0 2
355 1 18.72 18.72 0.891429 0 0 0 1 -6.99585 0 4
356 1 18.7266 20.5214 2.72163 -7.50228 3.48233 -6.67422 1 -7.32105 0.0703068 4
357 1 20.4977 18.7269 2.69257 -2.57003 3.82728 -10.1282 1 -7.32005 0.0770777 4
358 1 20.5029 20.5029 0.891429 0 0 0 1 -7.05471 0 4
359 1 17.8476 17.785 3.60207 -4.86407 1.24246 1.85992 1 -7.34752 0.0178401 4
360 1 19.6027 19.6034 3.59624 3.4119 5.91994 2.71597 1 -7.3835 0.0336504 4
361 1 0.912282 0.926861 4.42368 -7.04602 3.33708 2.01739 1 -7.35356 0.0403658 4
362 1 0.894886 2.64244 6.26144 -6.0694 -4.84975 -3.76874 1 -7.37656 0.0464088 4
363 1 2.66003 0.908406 6.24991 -3.95703 -5.95556 -3.67972 1 -7.3125 0.0402505 4
364 1 2.70432 2.75704 4.49767 -8.12105 -7.97478 -2.80388 1 -7.26096 0.0855277 4
365 1 3.58067 1.79238 5.37269 -9.6774 4.94931 -2.98071 1 -7.31083 0.0790683 4
366 1 1.76895 3.57112 5.40111 2.64761 4.41912 1.62365 1 -7.38131 0.0181591 4
367 1 1.76466 1.78465 7.16792 -3.07257 -4.25967 2.9766 1 -7.33187 0.0226847 4
368 1 0.861183 0.89103 8.08439 -6.26403 -1.30837 0.33116 1 -7.29905 0.0255566 4
369 1 2.6555 2.69857 8.04629 -11.6797 3.86735 0.262316 1 -7.36267 0.0942612 4
370 1 3.54939 3.56547 7.14234 -0.270819 12.1796 -6.2101 1 -7.31499 0.116383 4
411 1 0.0036177 1.79811 5.33651 -3.41425 -3.08014 -1.8254 1 -7.37869 0.0152348 4
371 1 0.0231531 3.5564 7.17332 11.0732 -2.76578 -4.98666 1 -7.31615 0.0965588 4
651 1 3.6138 0.00242884 7.16902 -3.54089 5.64836 -5.76154 1 -7.27549 0.0483235 4
710 1 -0.0237563 0.00296093 7.15274 1.7999 1.51168 4.21422 1 -7.33083 0.0144929 4
652 1 1.74038 0.038607 5.33562 0.702246 1.93168 -4.35789 1 -7.36192 0.0144501 4
372 1 4.45883 0.894754 4.44626 1.55108 -3.27155 -3.47553 1 -7.35589 0.0156778 4
373 1 4.45134 2.6559 6.27657 5.43123 -2.10256 -11.2219 1 -7.33438 0.0994943 4
374 1 6.25484 0.889216 6.28292 -7.34788 1.49446 7.31928 1 -7.36866 0.0683403 4
375 1 6.25491 2.61833 4.48622 -2.42825 2.13969 1.50446 1 -7.35525 0.00792853 4
376 1 7.08683 1.7398 5.36298 -5.11963 -3.71738 -5.38231 1 -7.27942 0.0429467 4
377 1 8.03686 0.86943 4.44105 -4.47392 -0.811315 -5.59064 1 -7.33546 0.0323223 4
378 1 8.00317 2.6549 6.28585 4.76407 -5.79936 -3.97244 1 -7.27955 0.0448826 4
379 1 5.37307 3.57155 5.42517 -1.2764 3.21028 3.97119 1 -7.25078 0.0172446 4
380 1 5.35711 1.76473 7.189 2.83587 5.8329 2.20407 1 -7.35194 0.0292059 4
381 1 4.4484 0.876526 8.06438 -5.86983 3.02469 5.10375 1 -7.28526 0.0433532 4
382 1 6.26485 2.67931 8.07029 -9.85269 2.18049 4.26335 1 -7.3667 0.074695 4
383 1 8.00284 0.850776 8.07052 1.68759 -3.93748 -0.753901 1 -7.33555 0.0117764 4
384 1 7.12863 3.55324 7.1997 -0.302284 -0.210777 0.0269642 1 -7.40181 8.49798e-05 4
665 1 7.12242 -0.0103768 7.14607 7.50901 2.63158 1.39826 1 -7.41148 0.040623 4
386 1 9.83615 0.904753 6.2316 -0.101506 -0.423109 -5.14979 1 -7.35869 0.0166248 4
387 1 9.8107 2.68111 4.48913 0.430317 0.250966 -0.256847 1 -7.33496 0.000195521 4
388 1 10.7013 1.77953 5.36074 -3.07362 -0.0548206 6.89452 1 -7.37714 0.0354686 4
389 1 11.5816 0.889417 4.43719 -1.87831 -0.811794 -0.603224 1 -7.29296 0.00283263 4
390 1 11.6046 2.64265 6.2622 -1.77698 0.388847 0.170064 1 -7.36363 0.00207753 4
391 1 8.91337 3.57143 5.33241 3.06666 2.85047 6.52346 1 -7.32481 0.0373985 4
392 1 12.5138 3.54042 5.36666 -2.84928 0.185247 -1.44916 1 -7.37919 0.00638159 4
393 1 8.89069 1.71165 7.11188 6.85562 -2.6173 1.61435 1 -7.28566 0.0351397 4
394 1 9.7782 2.64026 8.02826 -1.97107 -0.0814815 2.84277 1 -7.27575 0.00745236 4
395 1 12.5283 1.80109 7.16705 2.63673 2.69576 -2.00652 1 -7.39762 0.0113565 4
396 1 11.6501 0.88688 8.06119 -2.30819 -6.94682 -1.82387 1 -7.30959 0.0354238 4
397 1 10.6615 3.54473 7.10737 0.558311 -2.178 1.79666 1 -7.29125 0.00515581 4
398 1 13.4149 0.900572 6.30047 -0.458316 2.06898 6.66668 1 -7.34762 0.0304586 4
399 1 13.4042 2.72878 4.44613 6.14335 -3.4558 -1.16355 1 -7.26024 0.0317668 4
400 1 14.3066 1.76148 5.36765 -7.96207 0.535788 -4.72768 1 -7.25346 0.0535489 4
401 1 15.1194 0.851411 4.44016 2.1025 -0.56143 0.18265 1 -7.34422 0.00296841 4
402 1 15.2217 2.67525 6.25714 -1.28884 -1.61944 -3.34719 1 -7.30942 0.00963972 4
403 1 16.9801 0.868777 6.2803 -12.1018 7.83732 -0.0906411 1 -7.35936 0.129393 4
404 1 16.9646 2.63226 4.48815 1.2857 -3.89816 1.56104 1 -7.27893 0.0120038 4
405 1 16.0934 3.56685 5.34099 -2.80463 0.697997 -4.78447 1 -7.40142 0.0194473 4
406 1 13.4014 2.64999 8.05413 5.89126 -3.71526 -2.03467 1 -7.29463 0.0327707 4
407 1 16.1146 1.74182 7.16925 -2.18459 -3.73566 -5.70204 1 -7.30067 0.0318936 4
408 1 15.1605 0.89159 8.04933 0.710288 6.54193 -4.30823 1 -7.40263 0.0385046 4
409 1 16.9822 2.68716 8.05116 4.59643 -0.526569 0.227256 1 -7.37055 0.0133548 4
410 1 14.3667 3.54153 7.1199 -6.27386 3.16936 -1.02534 1 -7.31281 0.031406 4
412 1 17.8754 1.76168 5.38129 -7.66762 5.90836 -5.84438 1 -7.3393 0.0795821 4
413 1 18.6851 0.892331 4.43275 -0.831713 -7.45936 -3.14487 1 -7.32174 0.0412195 4
414 1 18.7209 2.7019 6.24958 1.34406 -1.87815 4.30959 1 -7.3538 0.01488 4
415 1 20.4878 0.911848 6.23543 3.2356 3.44739 -7.07885 1 -7.37441 0.0451033 4
416 1 20.5066 2.68886 4.50091 2.5411 -1.79819 -2.2658 1 -7.36104 0.00922717 4
417 1 19.5905 3.55888 5.3305 -4.02054 3.24487 -1.19563 1 -7.36578 0.0175048 4
418 1 19.644 1.77337 7.16015 6.0465 -3.87931 -0.374292 1 -7.30615 0.0322101 4
419 1 18.7485 0.896463 8.06755 -11.4264 -1.201 -2.68626 1 -7.3877 0.0866542 4
420 1 20.5102 2.65933 8.12706 3.75479 5.00258 3.10086 1 -7.2827 0.0303368 4
421 1 17.8232 3.55642 7.13753 -0.313699 6.45023 -2.40046 1 -7.37857 0.0295441 4
423 1 0.8724 4.45884 4.46619 1.59909 -8.58206 0.749859 1 -7.33535 0.0477844 4
424 1 0.888841 6.25625 6.25308 -6.44571 1.15206 -4.44968 1 -7.29045 0.03901 4
425 1 2.66563 4.46435 6.23865 2.47932 0.521016 -7.37375 1 -7.32082 0.0378377 4
426 1 2.65911 6.19071 4.48985 2.31334 -11.9146 -0.931476 1 -7.30052 0.0922288 4
427 1 3.56845 5.33736 5.40853 -3.66082 3.16388 -1.67448 1 -7.40702 0.0163173 4
428 1 1.77046 7.12107 5.35365 -4.3082 0.512797 -0.174805 1 -7.34016 0.0117353 4
429 1 0.892977 8.01373 4.44066 0.47428 -0.411662 -12.9901 1 -7.33254 0.105275 4
430 1 2.69497 7.97979 6.24042 -8.25452 -5.95467 -6.08693 1 -7.27313 0.0875417 4
431 1 1.8169 5.38397 7.20027 3.35623 -2.47394 -1.65518 1 -7.24962 0.0125259 4
432 1 0.895507 4.4482 8.07718 -3.73645 -1.77768 0.330571 1 -7.34283 0.0107247 4
433 1 2.63785 6.26535 8.10472 -2.45682 -3.79835 2.6542 1 -7.37035 0.0171218 4