ITEM: TIMESTEP
49125325
ITEM: NUMBER OF ATOMS
3060
ITEM: BOX BOUNDS pp pp mm
0.0000000000000000e+00 2.1394294200000001e+01
0.0000000000000000e+00 2.1394294200000001e+01
-5.3491084073550004e-03 5.3485735499999997e+01
ITEM: ATOMS id type x y z vx vy vz c_clusts c_atom_pe c_atom_ke c_atom_coord
1 1 0 0 0 0 0 0 1 -3.33832 0 2
2 1 1.78286 1.78286 0 0 0 0 1 -3.34567 0 2
3 1 0.891429 0.891429 0.891429 0 0 0 1 -7.02038 0 4
4 1 0.91896 2.64269 2.69781 3.97458 3.44085 -0.665128 1 -7.33468 0.0174772 4
5 1 2.70522 0.908145 2.7523 7.31785 5.93642 -0.100561 1 -7.213 0.0552727 4
6 1 2.67429 2.67429 0.891429 0 0 0 1 -6.99459 0 4
7 1 3.56572 0 0 0 0 0 1 -3.33901 0 2
8 1 3.60246 1.81992 1.78761 2.26015 3.93695 7.56346 1 -7.30662 0.0484334 4
9 1 0 3.56572 0 0 0 0 1 -3.35224 0 2
10 1 1.79307 3.60843 1.76547 4.34933 2.92956 -1.35126 1 -7.26457 0.0182526 4
11 1 3.56572 3.56572 0 0 0 0 1 -3.32318 0 2
12 1 1.76175 1.76822 3.61163 -1.33411 3.04713 -8.51056 1 -7.37634 0.0519692 4
13 1 3.53082 3.5366 3.57158 3.98092 -7.10981 -0.945838 1 -7.29443 0.0418842 4
292 1 1.79587 0.00968006 1.77892 5.33631 -0.933388 -3.27153 1 -7.27742 0.0249284 4
56 1 0.0547128 3.56405 3.59838 -8.29973 1.86178 -1.58219 1 -7.276 0.0465917 4
55 1 0.0122558 1.78806 1.78798 4.90741 3.29012 -3.18632 1 -7.35155 0.0280467 4
14 1 5.34857 1.78286 0 0 0 0 1 -3.33113 0 2
15 1 4.45714 0.891429 0.891429 0 0 0 1 -6.98837 0 4
16 1 4.47792 2.73661 2.63703 5.06768 8.31795 0.048041 1 -7.31542 0.0590508 4
17 1 6.24768 0.907648 2.63512 9.11977 -2.07829 -7.73399 1 -7.24668 0.0916858 4
18 1 6.24 2.67429 0.891429 0 0 0 1 -7.02789 0 4
19 1 7.13143 0 0 0 0 0 1 -3.35301 0 2
20 1 7.15501 1.7666 1.74996 -4.38882 -1.50078 2.95033 1 -7.36932 0.0188088 4
21 1 8.02286 0.891429 0.891429 0 0 0 1 -7.0301 0 4
22 1 8.07406 2.68935 2.64977 -1.06244 -8.08188 -0.985829 1 -7.3097 0.0419623 4
23 1 5.36462 3.58157 1.75682 2.00075 3.50576 -4.56059 1 -7.39335 0.0230873 4
24 1 7.13143 3.56572 0 0 0 0 1 -3.30497 0 2
25 1 5.3565 1.82596 3.56498 -3.80041 -5.18297 8.14349 1 -7.36499 0.0669873 4
26 1 7.14422 3.55426 3.59396 -7.43835 -3.58914 -5.43673 1 -7.25616 0.060854 4
28 1 8.91429 1.78286 0 0 0 0 1 -3.31185 0 2
29 1 9.83047 0.911615 2.65496 -4.94868 -0.0364505 4.91463 1 -7.36515 0.0302775 4
30 1 9.80572 2.67429 0.891429 0 0 0 1 -7.03784 0 4
31 1 10.6971 0 0 0 0 0 1 -3.32105 0 2
32 1 10.7155 1.80914 1.76299 4.70039 -2.4736 -1.51469 1 -7.34332 0.0189882 4
33 1 12.48 1.78286 0 0 0 0 1 -3.32637 0 2
34 1 11.5886 0.891429 0.891429 0 0 0 1 -6.9835 0 4
35 1 11.6342 2.65842 2.70231 -5.5097 -4.06764 -0.810269 1 -7.29844 0.029602 4
36 1 8.89922 3.56977 1.77188 -8.28574 1.5473 -1.86325 1 -7.39044 0.0463828 4
37 1 10.6971 3.56572 0 0 0 0 1 -3.3134 0 2
38 1 12.4895 3.56039 1.77609 -1.39587 -4.64007 -8.11635 1 -7.31457 0.0556162 4
39 1 8.93376 1.77614 3.55927 1.04196 -5.49044 -5.07314 1 -7.40293 0.0354579 4
40 1 12.5304 1.73187 3.60994 -2.75239 -0.0428837 3.56357 1 -7.30756 0.0126206 4
41 1 10.7358 3.57242 3.55319 -4.2617 -0.626885 -0.966159 1 -7.31249 0.0121302 4
320 1 8.95574 0.0392406 1.74383 3.603 -6.00331 -3.87826 1 -7.36995 0.039874 4
319 1 10.6977 0.0195907 3.55421 3.10756 4.13604 0.688583 1 -7.30735 0.0169536 4
42 1 13.3795 0.920507 2.7112 -3.09429 1.18579 -3.29714 1 -7.3588 0.0136012 4
43 1 13.3714 2.67429 0.891429 0 0 0 1 -6.99505 0 4
44 1 14.2629 0 0 0 0 0 1 -3.33271 0 2
45 1 14.2947 1.80147 1.80118 2.76097 9.10011 2.84089 1 -7.35203 0.0613124 4
46 1 16.0457 1.78286 0 0 0 0 1 -3.321 0 2
47 1 15.1543 0.891429 0.891429 0 0 0 1 -7.0417 0 4
48 1 15.157 2.68401 2.6676 -1.51257 5.35349 -5.99394 1 -7.30991 0.0416248 4
49 1 16.9942 0.881235 2.67316 -3.37332 5.78615 -2.87967 1 -7.28986 0.0330827 4
50 1 16.9371 2.67429 0.891429 0 0 0 1 -7.02721 0 4
51 1 14.2629 3.56572 0 0 0 0 1 -3.32181 0 2
52 1 16.0342 3.56459 1.76982 -6.86268 5.46776 -1.92617 1 -7.37358 0.0502317 4
53 1 16.1271 1.79009 3.58157 3.52535 4.87132 0.824978 1 -7.26619 0.0229292 4
54 1 14.2532 3.5326 3.59853 -7.47909 -4.01115 0.96787 1 -7.3666 0.045414 4
336 1 14.3043 0.0462014 3.58486 -0.214789 3.3342 4.13068 1 -7.28226 0.0175683 4
350 1 21.3842 0.017325 3.67233 2.57278 0.464597 -3.81768 1 -7.35934 0.013326 4
57 1 17.8286 0 0 0 0 0 1 -3.33687 0 2
58 1 17.844 1.77291 1.78482 -0.895065 -2.44866 -0.138324 1 -7.38214 0.00424258 4
59 1 19.6114 1.78286 0 0 0 0 1 -3.32595 0 2
60 1 18.72 0.891429 0.891429 0 0 0 1 -7.03046 0 4
61 1 18.7169 2.65044 2.66684 -11.9727 0.148933 -1.13535 1 -7.35014 0.0900385 4
62 1 20.5263 0.880542 2.72418 -2.20845 -1.32317 -1.99269 1 -7.30324 0.006597 4
63 1 20.5029 2.67429 0.891429 0 0 0 1 -7.01889 0 4
64 1 17.8286 3.56572 0 0 0 0 1 -3.33105 0 2
65 1 19.5876 3.57441 1.78543 -5.97117 2.24967 -3.37461 1 -7.35907 0.0324308 4
66 1 19.626 1.77907 3.58094 3.83073 6.09348 -5.8008 1 -7.33956 0.053189 4
67 1 17.7871 3.57995 3.55921 -4.76769 2.74704 -4.78578 1 -7.32537 0.0331011 4
68 1 19.6238 0.0193087 1.76133 -2.20862 2.27498 -2.1201 1 -7.34316 0.00905528 4
69 1 1.78286 5.34857 0 0 0 0 1 -3.32531 0 2
70 1 0.891429 4.45714 0.891429 0 0 0 1 -7.00125 0 4
71 1 0.928176 6.31883 2.75015 0.754975 -0.100547 -5.89685 1 -7.30643 0.0220046 4
72 1 2.68777 4.54665 2.67789 -3.1914 2.86152 -3.69627 1 -7.24404 0.0199399 4
73 1 2.67429 6.24 0.891429 0 0 0 1 -7.00974 0 4
74 1 3.61957 5.38193 1.76204 -3.69438 -3.26753 0.668242 1 -7.34298 0.0154186 4
75 1 0 7.13143 0 0 0 0 1 -3.33858 0 2
76 1 1.77693 7.12571 1.79642 -0.759048 -2.36527 4.56085 1 -7.33628 0.0167881 4
77 1 0.891429 8.02286 0.891429 0 0 0 1 -7.03271 0 4
78 1 2.69016 8.03595 2.68364 -4.95621 -8.56004 3.86456 1 -7.3197 0.070193 4
79 1 3.56572 7.13143 0 0 0 0 1 -3.31295 0 2
80 1 1.79286 5.42498 3.57607 -4.14578 1.48414 -3.49245 1 -7.37313 0.0196608 4
81 1 3.5623 7.15433 3.60726 -1.18101 -0.888324 -5.91981 1 -7.31512 0.0231717 4
128 1 0.00988172 5.39712 1.81018 0.0997755 -2.43428 -5.18261 1 -7.24456 0.0204126 4
83 1 5.34857 5.34857 0 0 0 0 1 -3.29967 0 2
84 1 4.45714 4.45714 0.891429 0 0 0 1 -7.05415 0 4
85 1 4.46133 6.24966 2.68651 -1.93693 7.84597 4.94517 1 -7.31089 0.0558724 4
86 1 6.20926 4.42837 2.69782 2.17307 -0.241321 5.15288 1 -7.32764 0.0195023 4
87 1 6.24 6.24 0.891429 0 0 0 1 -7.03096 0 4
88 1 7.10734 5.32088 1.7763 -2.31836 -3.02081 3.42234 1 -7.31914 0.0163153 4
89 1 8.02286 4.45714 0.891429 0 0 0 1 -7.03181 0 4
90 1 8.01118 6.1965 2.70479 1.7268 7.07565 -16.9064 1 -7.33175 0.210923 4
91 1 5.36468 7.13545 1.77641 -4.99328 -2.2943 -0.750284 1 -7.35321 0.0191456 4
92 1 4.45714 8.02286 0.891429 0 0 0 1 -7.01107 0 4
93 1 6.2755 8.0506 2.63779 15.1845 0.381572 -0.0102531 1 -7.33458 0.143604 4
94 1 7.13143 7.13143 0 0 0 0 1 -3.33221 0 2
95 1 8.02286 8.02286 0.891429 0 0 0 1 -7.01521 0 4
96 1 5.33713 5.33499 3.56106 3.55841 -4.1654 8.51842 1 -7.34644 0.0638461 4
97 1 7.14322 7.09765 3.58028 -3.86958 3.03672 3.83847 1 -7.30966 0.0242305 4
98 1 8.91429 5.34857 0 0 0 0 1 -3.32322 0 2
99 1 9.77669 4.47697 2.67176 6.158 1.1601 -0.639279 1 -7.35668 0.0246951 4
100 1 9.80572 6.24 0.891429 0 0 0 1 -6.98022 0 4
101 1 10.6688 5.3553 1.75791 4.69639 4.93698 1.14712 1 -7.34068 0.0297182 4
102 1 12.48 5.34857 0 0 0 0 1 -3.32145 0 2
103 1 11.5886 4.45714 0.891429 0 0 0 1 -7.0309 0 4
104 1 11.5975 6.2252 2.64893 -1.95913 -1.71484 3.11399 1 -7.36509 0.010255 4
105 1 8.85133 7.10666 1.80123 -4.4817 3.1482 -2.18421 1 -7.31168 0.0216403 4
106 1 9.8048 7.98762 2.67375 -4.83462 -1.33793 -2.29969 1 -7.31583 0.0189542 4
107 1 10.6971 7.13143 0 0 0 0 1 -3.33755 0 2
108 1 12.4756 7.12452 1.74532 -1.40121 9.26246 -6.2446 1 -7.38364 0.0788935 4
109 1 11.5886 8.02286 0.891429 0 0 0 1 -7.01912 0 4
110 1 8.94183 5.34159 3.60419 -0.262622 0.17112 -2.68282 1 -7.38473 0.00454109 4
111 1 12.4924 5.35286 3.55159 7.5199 -5.87518 -3.42343 1 -7.30709 0.063977 4
112 1 10.6975 7.09062 3.56391 -1.25352 -5.44783 -1.82895 1 -7.33982 0.021533 4
113 1 13.4044 4.4383 2.69661 -5.27353 12.3707 0.287343 1 -7.27522 0.112614 4
114 1 13.3714 6.24 0.891429 0 0 0 1 -7.05119 0 4
115 1 14.2769 5.348 1.74776 9.43411 -7.28271 2.72866 1 -7.33118 0.0930439 4
116 1 16.0457 5.34857 0 0 0 0 1 -3.33689 0 2
117 1 15.1543 4.45714 0.891429 0 0 0 1 -7.02937 0 4
118 1 15.1948 6.2024 2.69781 -4.13497 -6.95804 4.3193 1 -7.29927 0.0523888 4
119 1 16.9273 4.44438 2.69103 -0.340361 -2.6529 2.39375 1 -7.33997 0.00801918 4
120 1 16.9371 6.24 0.891429 0 0 0 1 -7.02285 0 4
121 1 13.3726 8.02716 2.62161 -0.157116 -5.06794 -6.45144 1 -7.26277 0.0419078 4
122 1 14.2629 7.13143 0 0 0 0 1 -3.33016 0 2
123 1 16.0771 7.14851 1.75193 2.7212 -4.50528 -4.58589 1 -7.34517 0.0303326 4
124 1 15.1543 8.02286 0.891429 0 0 0 1 -7.02982 0 4
125 1 16.9258 7.99818 2.61775 3.19881 -2.58157 -0.667674 1 -7.2611 0.0107945 4
126 1 16.0365 5.33765 3.58945 10.953 3.12468 -7.95347 1 -7.38157 0.120122 4
127 1 14.3107 7.08736 3.57431 2.06136 -3.57196 -4.31254 1 -7.24375 0.0221622 4
82 1 21.3722 7.16431 3.6093 4.52603 0.186631 0.00925687 1 -7.35875 0.0127721 4
129 1 17.819 5.35702 1.78667 0.36987 5.06704 -1.16407 1 -7.36029 0.0169093 4
130 1 19.6114 5.34857 0 0 0 0 1 -3.33882 0 2
131 1 18.72 4.45714 0.891429 0 0 0 1 -7.02104 0 4
132 1 18.7182 6.23318 2.69001 -1.87573 0.512562 4.31028 1 -7.31959 0.0139172 4
133 1 20.4969 4.47584 2.70392 1.80869 3.65052 4.29387 1 -7.28209 0.0218067 4
134 1 20.5029 6.24 0.891429 0 0 0 1 -6.98894 0 4
135 1 17.8286 7.13143 0 0 0 0 1 -3.31121 0 2
136 1 19.5607 7.11711 1.7808 -1.79438 -4.98645 5.44984 1 -7.34215 0.0359671 4
137 1 18.72 8.02286 0.891429 0 0 0 1 -7.03183 0 4
138 1 20.5001 8.00594 2.68358 5.7461 -2.04619 5.36143 1 -7.31956 0.0410487 4
139 1 19.6279 5.3759 3.6086 1.87948 3.84605 -6.19568 1 -7.40141 0.0352984 4
140 1 17.8283 7.13874 3.57678 -3.77208 1.57826 -4.21501 1 -7.34342 0.0214649 4
141 1 1.78286 8.91429 0 0 0 0 1 -3.33914 0 2
142 1 0.901692 9.76486 2.70843 -2.91915 2.48082 2.48128 1 -7.31673 0.0129668 4
143 1 2.67429 9.80572 0.891429 0 0 0 1 -7.05389 0 4
144 1 3.54667 8.92217 1.76241 3.34891 -4.36435 3.02049 1 -7.37188 0.024515 4
145 1 0 10.6971 0 0 0 0 1 -3.3334 0 2
146 1 1.79388 10.6952 1.77048 4.87151 -0.332005 -8.97154 1 -7.2981 0.0649379 4
147 1 1.78286 12.48 0 0 0 0 1 -3.31651 0 2
148 1 0.891429 11.5886 0.891429 0 0 0 1 -7.03286 0 4
149 1 2.68499 11.589 2.70306 15.0509 0.751009 0.0994982 1 -7.37277 0.141355 4
150 1 3.56572 10.6971 0 0 0 0 1 -3.32423 0 2
151 1 3.53385 12.4995 1.7929 -2.37184 1.16884 -0.206995 1 -7.27111 0.00437856 4
152 1 1.82448 8.91241 3.5895 -10.9496 -4.70044 -3.81085 1 -7.37458 0.0974161 4
153 1 1.74908 12.4794 3.54983 1.60579 0.36566 -9.28793 1 -7.28349 0.0553822 4
154 1 3.57601 10.6897 3.58766 3.17482 0.263366 8.97124 1 -7.3813 0.0564117 4
205 1 0.021523 8.88733 1.77539 7.79864 -5.71945 -1.6322 1 -7.33545 0.0598743 4
204 1 0.0274687 12.5029 1.75508 12.8013 -1.76385 -1.01066 1 -7.35176 0.104571 4
155 1 5.34857 8.91429 0 0 0 0 1 -3.33453 0 2
156 1 4.44299 9.77884 2.71011 -0.342734 -3.13365 0.440313 1 -7.31938 0.00630587 4
157 1 6.24 9.80572 0.891429 0 0 0 1 -7.02188 0 4
158 1 7.14467 8.92885 1.7906 3.38943 2.93003 7.66455 1 -7.36181 0.0490588 4
159 1 8.05844 9.81761 2.69408 7.90393 3.73497 -3.77813 1 -7.25071 0.0564517 4
160 1 5.36451 10.6574 1.80374 0.414318 -0.823213 -4.98113 1 -7.2989 0.0159721 4
161 1 5.34857 12.48 0 0 0 0 1 -3.35519 0 2
162 1 4.45714 11.5886 0.891429 0 0 0 1 -6.94706 0 4
163 1 6.25915 11.5994 2.66298 3.86646 -1.01615 -6.99068 1 -7.29305 0.0403654 4
164 1 7.13143 10.6971 0 0 0 0 1 -3.35125 0 2
165 1 7.1481 12.4921 1.79599 5.89685 4.34935 -2.33772 1 -7.38473 0.0368194 4
166 1 8.02286 11.5886 0.891429 0 0 0 1 -7.04869 0 4
167 1 5.39906 8.88115 3.56631 3.58171 7.50272 0.75224 1 -7.3668 0.0433739 4
168 1 5.30121 12.4736 3.59274 4.97537 -4.08276 -4.78148 1 -7.26682 0.0400131 4
169 1 7.14894 10.7297 3.63242 -5.72894 -0.740891 3.28062 1 -7.27738 0.027469 4
170 1 8.91429 8.91429 0 0 0 0 1 -3.33449 0 2
171 1 9.80572 9.80572 0.891429 0 0 0 1 -6.96539 0 4
172 1 10.6766 8.88544 1.79443 4.56768 -7.42932 4.10689 1 -7.38986 0.057839 4
173 1 12.48 8.91429 0 0 0 0 1 -3.3355 0 2
174 1 11.5582 9.79428 2.69094 -3.46326 -2.96672 -5.83952 1 -7.3948 0.0341685 4
175 1 8.86916 10.7388 1.78173 -4.07851 -1.94089 0.444696 1 -7.25997 0.0128214 4
176 1 8.91429 12.48 0 0 0 0 1 -3.34173 0 2
177 1 9.79571 11.6029 2.73372 -5.91411 1.48423 3.98822 1 -7.22633 0.0330418 4
178 1 10.6971 10.6971 0 0 0 0 1 -3.33178 0 2
179 1 10.6943 12.5073 1.77128 -2.53068 3.79862 -4.97364 1 -7.31856 0.0283646 4
180 1 12.4522 10.682 1.77405 -3.05265 3.40732 1.45812 1 -7.38061 0.0143498 4
181 1 12.48 12.48 0 0 0 0 1 -3.32221 0 2
182 1 11.5886 11.5886 0.891429 0 0 0 1 -7.038 0 4
183 1 8.94048 8.89178 3.62554 -1.79553 3.88243 -3.53344 1 -7.30671 0.0191597 4
184 1 12.4612 8.92707 3.55847 -6.94983 -2.55472 -10.1955 1 -7.33369 0.0988256 4
185 1 8.87647 12.4999 3.59411 -4.19554 -2.08194 6.96212 1 -7.31869 0.0438238 4
186 1 10.6924 10.6364 3.58527 -2.70924 3.48645 3.34677 1 -7.40233 0.0191061 4
187 1 12.471 12.454 3.56207 7.12919 -8.19646 2.42465 1 -7.32923 0.0771101 4
188 1 13.3714 9.80572 0.891429 0 0 0 1 -7.00249 0 4
189 1 14.2693 8.93501 1.76483 -2.98486 -9.14668 3.3029 1 -7.38088 0.0644088 4
190 1 16.0457 8.91429 0 0 0 0 1 -3.32524 0 2
191 1 15.1669 9.85914 2.64757 3.71173 -0.234029 2.191 1 -7.28762 0.0115972 4
192 1 16.9371 9.80572 0.891429 0 0 0 1 -7.01006 0 4
193 1 13.3532 11.5333 2.66082 4.19122 -2.89206 -1.00615 1 -7.28172 0.0167698 4
194 1 14.2629 10.6971 0 0 0 0 1 -3.33478 0 2
195 1 14.2276 12.4641 1.75306 2.42046 3.844 8.87773 1 -7.32676 0.0618997 4
196 1 16.0869 10.7554 1.77152 -5.5796 0.720846 -2.89725 1 -7.36672 0.0249254 4
197 1 16.0457 12.48 0 0 0 0 1 -3.32659 0 2
198 1 15.1543 11.5886 0.891429 0 0 0 1 -6.99197 0 4
199 1 16.9559 11.6139 2.66503 -0.952032 1.22849 2.05341 1 -7.35647 0.00412796 4
200 1 16.0642 8.93351 3.5791 0.884276 4.2827 7.22514 1 -7.25823 0.0443952 4
201 1 14.2994 10.6618 3.5854 -0.0867105 3.70426 7.61689 1 -7.29485 0.0446566 4
202 1 16.0386 12.4861 3.52461 -6.50737 7.715 -0.887466 1 -7.31399 0.063895 4
203 1 21.372 10.6727 3.54638 0.101342 -1.38085 -3.18755 1 -7.31817 0.00751733 4
206 1 17.8351 8.92988 1.73529 -4.51554 -0.417169 5.72496 1 -7.32657 0.0331998 4
207 1 19.6114 8.91429 0 0 0 0 1 -3.32045 0 2
208 1 18.715 9.81589 2.64255 10.3925 6.70147 -6.33226 1 -7.3289 0.120136 4
209 1 20.5029 9.80572 0.891429 0 0 0 1 -7.009 0 4
210 1 17.8286 10.6971 0 0 0 0 1 -3.30509 0 2
211 1 17.8763 12.5271 1.7398 -1.72144 -4.50988 3.55524 1 -7.31989 0.0223713 4
212 1 19.5933 10.6952 1.73312 -3.52088 2.59816 6.11194 1 -7.37207 0.0351689 4
213 1 19.6114 12.48 0 0 0 0 1 -3.32704 0 2
214 1 18.72 11.5886 0.891429 0 0 0 1 -7.02427 0 4
215 1 20.4881 11.5746 2.61225 3.73789 -1.04793 -3.73194 1 -7.30019 0.0180487 4
216 1 19.6466 8.92993 3.51925 2.2962 5.40629 0.646551 1 -7.33672 0.0217342 4
217 1 17.7904 10.747 3.53316 -1.52553 0.0146891 1.8237 1 -7.34939 0.0035188 4
218 1 19.6427 12.4941 3.54657 4.55644 -0.0174695 -5.33037 1 -7.29887 0.0306073 4
219 1 0.874891 13.3764 2.65274 1.76872 -2.0627 0.807148 1 -7.38388 0.00500094 4
220 1 2.67429 13.3714 0.891429 0 0 0 1 -7.04217 0 4
221 1 0 14.2629 0 0 0 0 1 -3.29252 0 2
222 1 1.78312 14.256 1.76239 4.47322 -4.05146 -1.2974 1 -7.35568 0.0237189 4
223 1 1.78286 16.0457 0 0 0 0 1 -3.32302 0 2
224 1 0.891429 15.1543 0.891429 0 0 0 1 -7.04493 0 4
225 1 0.869043 16.9311 2.67757 2.19416 6.0709 -2.26713 1 -7.3508 0.0291358 4
226 1 2.66595 15.1426 2.68205 -0.894117 3.37247 -5.73576 1 -7.36957 0.0280539 4
227 1 2.67429 16.9371 0.891429 0 0 0 1 -7.00968 0 4
228 1 3.56572 14.2629 0 0 0 0 1 -3.34516 0 2
229 1 3.57881 16.0427 1.76732 5.299 3.40563 8.19824 1 -7.36499 0.0665304 4
230 1 1.78861 16.0621 3.55071 -2.77927 8.63596 0.922358 1 -7.39887 0.0517577 4
231 1 3.52996 14.3058 3.57037 -0.984101 7.24139 -4.30165 1 -7.34338 0.0447589 4
233 1 0.00165081 16.0259 1.74474 5.61077 3.34795 0.886365 1 -7.33119 0.0270601 4
232 1 0.0119687 14.2988 3.53565 0.627479 1.7782 1.48979 1 -7.3804 0.00359465 4
234 1 4.47401 13.4359 2.70499 2.68786 -2.106 -3.19462 1 -7.25497 0.0136096 4
235 1 6.24 13.3714 0.891429 0 0 0 1 -7.04931 0 4
236 1 8.01771 13.3827 2.69905 8.66998 -2.89959 -4.28091 1 -7.38765 0.0634267 4
237 1 5.40272 14.2608 1.77059 -3.51266 -3.97664 2.90995 1 -7.35899 0.0227934 4
238 1 5.34857 16.0457 0 0 0 0 1 -3.31865 0 2
239 1 4.45714 15.1543 0.891429 0 0 0 1 -6.98929 0 4
240 1 4.46754 16.9182 2.64896 -1.96709 -2.93836 5.59775 1 -7.31495 0.0272861 4
241 1 6.24429 15.1769 2.68984 -1.76646 1.17846 -10.1602 1 -7.29221 0.0670598 4
242 1 6.24 16.9371 0.891429 0 0 0 1 -7.0049 0 4
243 1 7.13143 14.2629 0 0 0 0 1 -3.3386 0 2
244 1 7.16505 16.0617 1.78069 -3.33229 1.47376 -4.0419 1 -7.31522 0.018432 4
245 1 8.02286 15.1543 0.891429 0 0 0 1 -7.04355 0 4
246 1 8.04443 16.9624 2.6511 -3.83374 1.45235 -2.88718 1 -7.38159 0.0156495 4
247 1 5.3697 16.0906 3.56394 -9.94099 -5.8054 3.37478 1 -7.39546 0.0895765 4
248 1 7.1556 14.2586 3.62015 4.50468 1.11018 -3.19407 1 -7.27093 0.0197476 4
249 1 9.80572 13.3714 0.891429 0 0 0 1 -7.01856 0 4
250 1 11.5726 13.3749 2.68333 -0.411321 6.24402 -6.73094 1 -7.31841 0.0525717 4
251 1 8.89647 14.2991 1.78402 6.14978 5.98744 3.83365 1 -7.31895 0.0550014 4
252 1 8.91429 16.0457 0 0 0 0 1 -3.32729 0 2
253 1 9.78411 15.1607 2.70256 9.56511 4.48584 -6.24855 1 -7.31733 0.0937737 4
254 1 9.80572 16.9371 0.891429 0 0 0 1 -7.02568 0 4
255 1 10.6971 14.2629 0 0 0 0 1 -3.33085 0 2
256 1 10.6919 16.06 1.78142 -9.40072 -0.691429 -2.14305 1 -7.37765 0.0581622 4
257 1 12.4695 14.3012 1.77241 -0.125521 1.38086 5.47583 1 -7.35374 0.0198599 4
258 1 12.48 16.0457 0 0 0 0 1 -3.32208 0 2
259 1 11.5886 15.1543 0.891429 0 0 0 1 -7.05056 0 4
260 1 11.5317 16.9176 2.65813 0.616299 0.617607 -2.42371 1 -7.27678 0.0041302 4
261 1 8.86597 16.033 3.55498 12.0978 3.23123 9.40354 1 -7.32948 0.152634 4
262 1 10.6559 14.2246 3.60844 10.4362 1.85725 0.641924 1 -7.35827 0.0701945 4
263 1 12.525 16.0307 3.54107 4.79584 -5.67903 5.60525 1 -7.24653 0.0539459 4
264 1 13.3714 13.3714 0.891429 0 0 0 1 -6.99913 0 4
265 1 15.1487 13.3713 2.6665 5.22262 -3.91223 -5.05514 1 -7.34844 0.0424094 4
266 1 16.9371 13.3714 0.891429 0 0 0 1 -7.02085 0 4
267 1 13.3777 15.1051 2.63806 -8.69312 0.264728 2.91733 1 -7.34318 0.0523779 4
268 1 13.3714 16.9371 0.891429 0 0 0 1 -7.04385 0 4
269 1 14.2629 14.2629 0 0 0 0 1 -3.32345 0 2
270 1 14.2694 16.0294 1.744 -6.58993 -0.471916 4.91282 1 -7.29142 0.0421916 4
271 1 16.0362 14.2568 1.77999 6.81141 3.26999 -3.36072 1 -7.3711 0.0425631 4
272 1 16.0457 16.0457 0 0 0 0 1 -3.34223 0 2
273 1 15.1543 15.1543 0.891429 0 0 0 1 -7.0193 0 4
274 1 15.1484 16.9361 2.72171 0.448534 2.61186 -4.88251 1 -7.23461 0.0192093 4
275 1 16.8945 15.17 2.6844 4.377 -7.75603 -3.76723 1 -7.38465 0.0582007 4
276 1 16.9371 16.9371 0.891429 0 0 0 1 -7.04073 0 4
277 1 14.2856 14.2357 3.52309 -1.20756 3.90095 5.99501 1 -7.36256 0.0327495 4
278 1 16.0385 16.0244 3.55855 6.19701 -5.17361 0.329987 1 -7.35073 0.0406307 4
279 1 18.753 13.4247 2.6433 0.958905 3.56395 5.39339 1 -7.32948 0.0265838 4
280 1 20.5029 13.3714 0.891429 0 0 0 1 -6.99383 0 4
281 1 17.8286 14.2629 0 0 0 0 1 -3.3182 0 2
282 1 17.7939 16.059 1.77846 6.4824 6.64754 3.22445 1 -7.34716 0.0601316 4
283 1 19.6527 14.3077 1.77511 -4.05886 5.96039 1.36195 1 -7.33512 0.0335211 4
284 1 19.6114 16.0457 0 0 0 0 1 -3.30136 0 2
285 1 18.72 15.1543 0.891429 0 0 0 1 -6.99392 0 4
286 1 18.7004 16.9752 2.64225 3.26898 -7.43657 -3.59958 1 -7.35942 0.0491379 4
287 1 20.5591 15.1994 2.64432 -3.13953 -7.3394 -4.68408 1 -7.28236 0.0533195 4
288 1 20.5029 16.9371 0.891429 0 0 0 1 -7.04827 0 4
289 1 17.8112 14.269 3.54405 1.54565 -2.92129 -2.41501 1 -7.33222 0.0104289 4
290 1 19.5752 16.0997 3.55238 -0.743129 4.64488 -1.15845 1 -7.2871 0.0146078 4
291 1 3.60944 21.3938 3.64926 -2.44361 7.34846 -0.316437 1 -7.30649 0.03739 4
293 1 0 17.8286 0 0 0 0 1 -3.32637 0 2
294 1 1.75191 17.8243 1.77787 -1.0328 5.16645 -4.70753 1 -7.36526 0.0310713 4
295 1 1.78286 19.6114 0 0 0 0 1 -3.33768 0 2
296 1 0.891429 18.72 0.891429 0 0 0 1 -7.00707 0 4
297 1 0.883355 20.5296 2.71855 -1.15205 6.95135 3.9785 1 -7.23505 0.0407545 4
298 1 2.66082 18.7271 2.64929 -6.59121 -2.50342 -2.04411 1 -7.39515 0.0335423 4
299 1 2.67429 20.5029 0.891429 0 0 0 1 -7.03768 0 4
300 1 3.56572 17.8286 0 0 0 0 1 -3.31641 0 2
301 1 3.51312 19.6198 1.76958 0.232294 7.76294 9.44302 1 -7.36878 0.0930451 4
302 1 1.80301 19.6112 3.55405 1.63172 -1.19463 -7.13138 1 -7.3394 0.0342 4
303 1 3.51836 17.8469 3.56125 -2.56782 5.21296 1.27579 1 -7.3456 0.0220316 4
27 1 5.31193 21.3573 1.7876 -0.58277 -5.56674 4.3349 1 -7.33586 0.0311957 4
306 1 7.12811 21.3763 3.58793 2.47813 4.65352 2.40882 1 -7.25418 0.0209128 4
307 1 5.33458 17.8294 1.76463 -6.68329 6.45021 -0.409657 1 -7.29488 0.0538021 4
308 1 5.34857 19.6114 0 0 0 0 1 -3.33008 0 2
309 1 4.45714 18.72 0.891429 0 0 0 1 -7.00212 0 4
310 1 4.41578 20.5347 2.68005 2.758 -4.25732 1.56132 1 -7.34069 0.0175332 4
311 1 6.23884 18.7904 2.70306 5.95427 -0.288549 -2.66124 1 -7.25242 0.0265271 4
312 1 6.24 20.5029 0.891429 0 0 0 1 -7.01815 0 4
313 1 7.13143 17.8286 0 0 0 0 1 -3.32269 0 2
314 1 7.12789 19.6388 1.77716 -0.617414 0.0862088 3.51506 1 -7.3559 0.00793238 4
315 1 8.02286 18.72 0.891429 0 0 0 1 -7.0108 0 4
316 1 8.05832 20.5332 2.66341 2.17773 -8.26669 -8.85292 1 -7.26412 0.0942694 4
317 1 5.30323 19.6522 3.59342 -2.99614 -0.508136 -0.858213 1 -7.31171 0.00620656 4
318 1 7.12243 17.8331 3.58081 1.07667 1.44194 1.31825 1 -7.32167 0.00309733 4
321 1 12.5181 21.3756 1.779 -4.31099 -4.413 3.49733 1 -7.36149 0.0313021 4
322 1 8.91303 17.8206 1.78173 -9.21787 -2.19103 -3.9482 1 -7.40868 0.0655776 4
323 1 8.91429 19.6114 0 0 0 0 1 -3.33387 0 2
324 1 9.80016 18.7249 2.65638 -2.42925 -6.29532 3.52874 1 -7.3251 0.036091 4
325 1 9.80572 20.5029 0.891429 0 0 0 1 -7.0417 0 4
326 1 10.6971 17.8286 0 0 0 0 1 -3.32595 0 2
327 1 10.6672 19.622 1.75762 -1.35799 -0.101198 -3.15566 1 -7.32525 0.00735245 4
328 1 12.496 17.8215 1.77561 -2.54215 4.19784 -6.13694 1 -7.31544 0.0384325 4
329 1 12.48 19.6114 0 0 0 0 1 -3.33863 0 2
330 1 11.5886 18.72 0.891429 0 0 0 1 -6.96546 0 4
331 1 11.6281 20.5076 2.66534 10.7833 -2.96404 -1.12762 1 -7.31512 0.0786348 4
332 1 8.90866 19.6561 3.58108 5.93134 -1.12708 -2.89989 1 -7.31034 0.0279223 4
333 1 10.7042 17.8436 3.55799 6.22741 -0.672929 1.28566 1 -7.31509 0.0254487 4
334 1 12.4874 19.574 3.54031 -3.18834 0.0734385 4.58585 1 -7.33501 0.0194203 4
335 1 16.0508 21.3831 1.76161 0.0290455 0.103287 2.72137 1 -7.3161 0.00461675 4
337 1 13.3754 18.7448 2.66046 -2.32625 -7.64973 -3.74783 1 -7.3743 0.0485343 4
338 1 13.3714 20.5029 0.891429 0 0 0 1 -7.04829 0 4
339 1 14.2629 17.8286 0 0 0 0 1 -3.33593 0 2
340 1 14.2768 19.6286 1.76578 -3.73433 -2.25892 -3.88411 1 -7.36436 0.021246 4
341 1 16.0888 17.8329 1.76297 -4.58991 -1.99561 0.829426 1 -7.27654 0.0160198 4
342 1 16.0457 19.6114 0 0 0 0 1 -3.30964 0 2
343 1 15.1543 18.72 0.891429 0 0 0 1 -7.00266 0 4
344 1 15.1762 20.5003 2.70047 5.28003 -4.29792 -4.90947 1 -7.32628 0.0438523 4
345 1 16.9156 18.7533 2.67241 -4.59791 -3.19149 -3.03795 1 -7.29769 0.0252428 4
346 1 16.9371 20.5029 0.891429 0 0 0 1 -7.01036 0 4
347 1 14.2906 17.8591 3.55699 0.975215 2.67472 1.7216 1 -7.34625 0.00688968 4
348 1 16.0744 19.6152 3.59897 -8.07789 -5.18452 -1.57177 1 -7.38864 0.0588828 4
349 1 17.8562 21.3448 3.61115 1.76463 4.51699 -0.644999 1 -7.33685 0.0148966 4
304 1 21.3429 17.8099 3.54943 1.59276 -3.32652 4.35971 1 -7.31966 0.0202971 4
305 1 21.353 19.6275 1.76236 4.96436 -5.19345 6.6393 1 -7.33404 0.0595644 4
351 1 17.8286 17.8286 0 0 0 0 1 -3.31805 0 2
352 1 17.8299 19.6185 1.76507 3.9349 -1.07927 -5.34559 1 -7.37894 0.0281484 4
353 1 19.6105 17.7805 1.77954 -1.40185 5.43227 2.60775 1 -7.3393 0.0238234 4
354 1 19.6114 19.6114 0 0 0 0 1 -3.33464 0 2
355 1 18.72 18.72 0.891429 0 0 0 1 -6.99125 0 4
356 1 18.7112 20.5183 2.66438 -2.51363 2.88792 -10.9133 1 -7.31065 0.0832549 4
357 1 20.502 18.7288 2.66454 5.96081 -3.31837 -2.26701 1 -7.33162 0.0321683 4
358 1 20.5029 20.5029 0.891429 0 0 0 1 -7.04552 0 4
359 1 17.8176 17.8317 3.58073 -2.94749 -3.85898 7.944 1 -7.3177 0.0539559 4
360 1 19.6065 19.6263 3.57 9.36463 -0.0916217 5.86502 1 -7.35294 0.0760002 4
361 1 0.892871 0.884453 4.54719 -1.08843 0.690549 3.1708 1 -7.36651 0.00729205 4
362 1 0.945039 2.67119 6.29232 -10.1642 5.62973 -0.386299 1 -7.38075 0.0841234 4
363 1 2.70478 0.910241 6.29308 1.62316 -3.13804 3.85761 1 -7.35538 0.0170315 4
364 1 2.64535 2.66343 4.47405 2.27016 -7.23339 -2.16986 1 -7.29563 0.0387048 4
365 1 3.59755 1.73602 5.37693 0.560553 -0.76103 11.5431 1 -7.27279 0.0834898 4
366 1 1.8381 3.53177 5.42626 2.04402 5.5429 2.74432 1 -7.30564 0.0264114 4
367 1 1.82261 1.78361 7.19884 5.18132 0.408153 2.86576 1 -7.34419 0.0219251 4
368 1 0.886257 0.900644 8.04894 2.25253 4.97049 -3.03874 1 -7.38164 0.0242831 4
369 1 2.74103 2.71446 8.08347 -0.0598656 -9.13968 6.65808 1 -7.28867 0.079588 4
370 1 3.61619 3.59934 7.16095 -2.14634 2.03954 9.75202 1 -7.26553 0.0646504 4
411 1 0.00985132 1.81405 5.41315 -3.11271 -3.66993 -1.30068 1 -7.37113 0.0154667 4
371 1 0.0500637 3.61651 7.1442 3.25512 2.55717 0.663411 1 -7.32454 0.0109392 4
651 1 3.61838 0.0137934 7.15408 0.844385 2.93235 -3.84975 1 -7.28445 0.0150205 4
710 1 0.0372658 0.00410942 7.16526 2.77715 5.92452 11.8002 1 -7.37849 0.113317 4
372 1 4.49746 0.926916 4.44299 7.06812 -8.72158 -3.45288 1 -7.36848 0.0858616 4
373 1 4.48949 2.66704 6.22367 8.54166 -2.71678 0.610348 1 -7.2657 0.0502382 4
374 1 6.29271 0.885427 6.27462 -4.4404 -3.38122 -0.506845 1 -7.31647 0.0195484 4
375 1 6.24702 2.66676 4.45509 4.20364 -1.14949 -2.7817 1 -7.40287 0.0166373 4
376 1 7.1176 1.76984 5.31992 -0.442543 0.504705 -0.601802 1 -7.28005 0.000505869 4
377 1 8.06714 0.898289 4.41597 7.75645 3.03154 3.66537 1 -7.34675 0.0515292 4
378 1 8.05448 2.66673 6.27367 3.05639 -1.02472 0.823959 1 -7.24777 0.00689056 4
379 1 5.3527 3.58378 5.34144 -2.96231 -4.2371 -1.96323 1 -7.35241 0.0190354 4
380 1 5.36151 1.78083 7.16432 5.60412 -4.75436 -0.355225 1 -7.32221 0.0336958 4
381 1 4.46551 0.901396 8.039 2.28845 -0.871414 6.63215 1 -7.33592 0.03111 4
382 1 6.23648 2.73313 8.02864 -12.0323 -4.94774 5.30205 1 -7.36642 0.122847 4
383 1 8.07613 0.909282 8.0706 -10.6221 3.04717 -0.341294 1 -7.31855 0.076079 4
384 1 7.11836 3.57282 7.12585 -3.56495 5.78059 -5.22247 1 -7.35923 0.045685 4
665 1 7.1913 0.00856201 7.14921 2.24509 -0.498058 1.01443 1 -7.37645 0.00393222 4
385 1 5.34516 0.00595009 5.36912 2.8631 -5.99125 -11.4618 1 -7.24993 0.109214 4
386 1 9.81123 0.89592 6.30907 -0.698579 1.77403 -5.73847 1 -7.3277 0.0227592 4
387 1 9.81373 2.6725 4.46404 -4.10783 -4.83625 -5.64794 1 -7.33637 0.044916 4
388 1 10.6687 1.75794 5.39712 0.122789 -2.44744 -2.42742 1 -7.35626 0.00740526 4
389 1 11.5821 0.862218 4.52912 0.653546 -3.742 -3.15131 1 -7.31553 0.0151626 4
390 1 11.5768 2.66828 6.2767 -0.814087 3.97976 -0.405922 1 -7.32561 0.0103734 4
391 1 8.9712 3.58488 5.34593 -3.92972 -6.97046 4.18168 1 -7.29484 0.0507379 4
392 1 12.5023 3.57568 5.36422 7.68425 -1.53629 1.32995 1 -7.39147 0.0393228 4
393 1 8.96703 1.7932 7.17855 -1.34706 7.97738 -0.437584 1 -7.35322 0.0408589 4
394 1 9.83326 2.71164 8.10636 -0.240905 1.97746 5.82202 1 -7.34731 0.0235677 4
395 1 12.4731 1.77527 7.14084 0.709044 7.6364 -6.02495 1 -7.37051 0.0592035 4
396 1 11.5652 0.862241 8.01559 -3.45931 -2.92276 -2.90426 1 -7.27662 0.0180156 4
397 1 10.7098 3.5572 7.16352 6.33434 -4.85042 9.27857 1 -7.3633 0.0932035 4
679 1 8.9218 0.00861652 5.3511 -0.423757 -6.00817 6.15127 1 -7.26549 0.0461316 4
398 1 13.3642 0.844793 6.26914 -0.51896 3.70987 -0.198111 1 -7.34217 0.00875858 4
399 1 13.3695 2.69686 4.48765 3.48542 -3.5211 -1.26737 1 -7.35063 0.016278 4
400 1 14.2553 1.75568 5.377 -0.093969 0.153885 -7.71822 1 -7.28876 0.0370987 4
401 1 15.2098 0.908819 4.49824 4.94644 6.2829 0.536737 1 -7.33033 0.0399785 4
402 1 15.0846 2.69265 6.29166 2.42473 -1.6691 3.01325 1 -7.28737 0.0110449 4
403 1 16.9272 0.912705 6.30213 -4.48826 -3.20642 0.412389 1 -7.37453 0.0190436 4
404 1 16.9512 2.71934 4.48908 2.3924 -0.551879 -4.61988 1 -7.33648 0.0170367 4
405 1 16.0334 3.55895 5.39849 2.45862 1.32966 -4.03516 1 -7.38075 0.0149975 4
406 1 13.351 2.63725 8.0735 3.16461 -1.47687 3.50045 1 -7.32758 0.0152177 4
407 1 16.0394 1.77877 7.18142 3.19249 -10.5309 -2.19018 1 -7.26222 0.0783567 4
408 1 15.1383 0.888464 8.02427 3.35558 -1.07525 1.6163 1 -7.39694 0.00935412 4
409 1 16.9729 2.71528 8.08962 0.0881536 8.84526 -2.82608 1 -7.34505 0.0536737 4
410 1 14.2731 3.58401 7.16263 1.75981 -0.0454929 10.6491 1 -7.31418 0.0725148 4
694 1 16.0938 0.00469529 5.41403 2.07849 -1.67211 -0.0173331 1 -7.3474 0.00442942 4
412 1 17.8461 1.82724 5.37038 -4.30702 1.6718 -9.55341 1 -7.33071 0.0700932 4
413 1 18.7256 0.902546 4.46938 4.6187 1.37531 -1.87968 1 -7.27144 0.0166543 4
414 1 18.7431 2.70347 6.28957 -0.554032 -7.9627 4.7725 1 -7.31788 0.0538326 4
415 1 20.5449 0.909312 6.31242 -1.21898 5.91178 1.83945 1 -7.38934 0.0247842 4
416 1 20.5264 2.6901 4.5068 7.70754 3.14824 -7.02277 1 -7.37588 0.0738427 4
417 1 19.62 3.59025 5.35633 1.60461 -1.7334 6.27707 1 -7.35066 0.0279974 4
418 1 19.6448 1.77002 7.1992 2.64338 -6.11527 -2.39672 1 -7.32464 0.0312011 4
419 1 18.7112 0.886196 8.09223 -2.81512 3.813 -0.139535 1 -7.38001 0.0139942 4
420 1 20.5369 2.72213 8.07624 -2.08364 1.67445 -4.48783 1 -7.27853 0.0169835 4
421 1 17.8608 3.57191 7.19761 7.83016 1.05435 -0.74646 1 -7.37378 0.0392006 4
709 1 17.784 0.0373105 7.17665 17.0289 -7.70602 8.26527 1 -7.26534 0.259976 4
423 1 0.939886 4.48788 4.49283 -1.16567 -5.48815 7.44431 1 -7.24945 0.0540865 4
424 1 0.888363 6.2746 6.29759 0.215143 -2.93038 -2.00414 1 -7.31656 0.00787367 4
425 1 2.72841 4.49513 6.25109 -3.12571 -6.34202 5.67029 1 -7.31754 0.0511282 4
426 1 2.68904 6.23181 4.51115 5.01064 -6.69401 -7.23802 1 -7.31859 0.0761259 4
427 1 3.57938 5.36803 5.37916 2.38911 1.7299 1.07239 1 -7.46117 0.00613116 4
428 1 1.76852 7.14137 5.37273 -1.52708 4.78047 9.93663 1 -7.27315 0.077132 4
429 1 0.912756 8.04149 4.4432 -0.984856 -3.96725 -2.03981 1 -7.29842 0.01299 4
430 1 2.70564 8.05971 6.26657 -6.16053 -5.6621 4.65916 1 -7.22324 0.0570885 4
431 1 1.80198 5.37645 7.19326 -1.33681 -2.5103 0.64677 1 -7.26574 0.00529496 4