ITEM: TIMESTEP
49125075
ITEM: NUMBER OF ATOMS
3060
ITEM: BOX BOUNDS pp pp mm
0.0000000000000000e+00 2.1394294200000001e+01
0.0000000000000000e+00 2.1394294200000001e+01
-5.3491084073550004e-03 5.3485735499999997e+01
ITEM: ATOMS id type x y z vx vy vz c_clusts c_atom_pe c_atom_ke c_atom_coord
1 1 0 0 0 0 0 0 1 -3.32905 0 2
2 1 1.78286 1.78286 0 0 0 0 1 -3.33529 0 2
3 1 0.891429 0.891429 0.891429 0 0 0 1 -7.01722 0 4
4 1 0.894246 2.64567 2.6987 2.97632 -3.28067 -0.374033 1 -7.3204 0.0122999 4
5 1 2.66181 0.871142 2.72771 5.79853 5.2996 7.59329 1 -7.24448 0.0742969 4
6 1 2.67429 2.67429 0.891429 0 0 0 1 -7.01437 0 4
7 1 3.56572 0 0 0 0 0 1 -3.33748 0 2
8 1 3.56822 1.78175 1.75696 8.54861 7.96426 1.11302 1 -7.32917 0.0857373 4
9 1 0 3.56572 0 0 0 0 1 -3.35732 0 2
10 1 1.77395 3.57273 1.79305 1.37072 7.91227 -6.6335 1 -7.33271 0.0675246 4
11 1 3.56572 3.56572 0 0 0 0 1 -3.34053 0 2
12 1 1.78067 1.75436 3.64898 -4.02144 0.670482 -1.49495 1 -7.35222 0.0117367 4
13 1 3.5208 3.59839 3.57505 -1.6647 -9.56003 -0.192678 1 -7.33454 0.0586341 4
292 1 1.79587 0.00968006 1.77892 5.33631 -0.933388 -3.27153 1 -7.32304 0.0249284 4
56 1 0.0710732 3.55999 3.60188 4.04472 -0.398722 0.728016 1 -7.20386 0.0106116 4
350 1 -0.00675909 0.00675683 3.65245 -4.29911 2.2161 10.58 1 -7.32888 0.0842328 4
14 1 5.34857 1.78286 0 0 0 0 1 -3.324 0 2
15 1 4.45714 0.891429 0.891429 0 0 0 1 -7.03747 0 4
16 1 4.43985 2.67069 2.65925 6.94749 10.4827 -5.98546 1 -7.32655 0.120738 4
17 1 6.20023 0.905287 2.69206 4.23792 2.45682 -7.7731 1 -7.32391 0.0525434 4
18 1 6.24 2.67429 0.891429 0 0 0 1 -6.99325 0 4
19 1 7.13143 0 0 0 0 0 1 -3.33482 0 2
20 1 7.15501 1.7666 1.74996 -4.38882 -1.50078 2.95033 1 -7.26978 0.0188088 4
21 1 8.02286 0.891429 0.891429 0 0 0 1 -7.05343 0 4
22 1 8.05125 2.71354 2.67283 6.53236 0.263268 -5.73345 1 -7.27251 0.0470639 4
23 1 5.3423 3.55636 1.79022 4.74632 4.42437 -4.94004 1 -7.37066 0.0413955 4
24 1 7.13143 3.56572 0 0 0 0 1 -3.33324 0 2
25 1 5.36936 1.83829 3.5174 1.30539 1.89371 3.85465 1 -7.36615 0.012541 4
26 1 7.18704 3.58907 3.61292 -5.06006 -7.0535 -0.551692 1 -7.24133 0.047093 4
27 1 5.32989 0.0209769 1.76288 -4.24571 -10.8696 2.11369 1 -7.3603 0.0875387 4
28 1 8.91429 1.78286 0 0 0 0 1 -3.33952 0 2
29 1 9.84912 0.915958 2.64021 0.424918 -1.46607 -1.99103 1 -7.32302 0.00391763 4
30 1 9.80572 2.67429 0.891429 0 0 0 1 -7.05706 0 4
31 1 10.6971 0 0 0 0 0 1 -3.33724 0 2
32 1 10.7006 1.80731 1.78641 -0.963152 2.71159 -4.53654 1 -7.34512 0.0179636 4
33 1 12.48 1.78286 0 0 0 0 1 -3.3076 0 2
34 1 11.5886 0.891429 0.891429 0 0 0 1 -6.97991 0 4
35 1 11.6433 2.68181 2.6897 3.18986 -2.77465 4.55147 1 -7.36304 0.0240193 4
36 1 8.95045 3.57012 1.78272 -5.48506 -1.35391 -1.33022 1 -7.35231 0.0209686 4
37 1 10.6971 3.56572 0 0 0 0 1 -3.31161 0 2
38 1 12.4895 3.56039 1.77609 -1.39587 -4.64007 -8.11635 1 -7.37184 0.0556162 4
39 1 8.93622 1.81541 3.57419 -1.28845 -5.80926 -0.169147 1 -7.25836 0.0220565 4
40 1 12.5099 1.76815 3.59417 7.29591 -10.1207 1.88101 1 -7.36309 0.099088 4
41 1 10.7379 3.56055 3.56699 3.2296 3.27391 -2.99508 1 -7.304 0.018747 4
321 1 12.5185 0.0231708 1.77372 4.63335 -7.06857 -2.14302 1 -7.2971 0.04732 4
320 1 8.92004 0.0501916 1.78594 6.73009 2.66668 -8.42382 1 -7.36368 0.0767862 4
42 1 13.4151 0.886041 2.71017 -5.78844 8.62563 3.23067 1 -7.40345 0.0736609 4
43 1 13.3714 2.67429 0.891429 0 0 0 1 -7.01489 0 4
44 1 14.2629 0 0 0 0 0 1 -3.30619 0 2
45 1 14.263 1.74938 1.7829 5.55127 5.96498 1.95223 1 -7.32966 0.0436998 4
46 1 16.0457 1.78286 0 0 0 0 1 -3.33817 0 2
47 1 15.1543 0.891429 0.891429 0 0 0 1 -7.04353 0 4
48 1 15.1781 2.64454 2.70838 -4.41813 6.57697 -5.37352 1 -7.31903 0.0570461 4
49 1 16.9881 0.849379 2.69558 5.27101 3.17191 -3.51263 1 -7.31644 0.0312353 4
50 1 16.9371 2.67429 0.891429 0 0 0 1 -7.0327 0 4
51 1 14.2629 3.56572 0 0 0 0 1 -3.32938 0 2
52 1 16.0342 3.56459 1.76982 -6.86268 5.46776 -1.92617 1 -7.35144 0.0502317 4
53 1 16.0785 1.76504 3.58376 10.6402 3.61553 -2.24917 1 -7.33692 0.0817519 4
54 1 14.3106 3.56577 3.5916 -8.6805 -4.42756 0.822077 1 -7.39923 0.0595227 4
55 1 21.3832 1.76389 1.81232 1.90719 3.45204 -3.86455 1 -7.36861 0.018977 4
57 1 17.8286 0 0 0 0 0 1 -3.3469 0 2
58 1 17.8508 1.78405 1.78358 -1.38115 -0.952394 -0.375445 1 -7.34274 0.00183964 4
59 1 19.6114 1.78286 0 0 0 0 1 -3.32878 0 2
60 1 18.72 0.891429 0.891429 0 0 0 1 -7.02659 0 4
61 1 18.7741 2.66484 2.6868 -5.07009 -3.60976 -5.27403 1 -7.33539 0.0414234 4
62 1 20.525 0.8938 2.7217 3.26616 -1.7029 2.05716 1 -7.33018 0.0110789 4
63 1 20.5029 2.67429 0.891429 0 0 0 1 -7.01009 0 4
64 1 17.8286 3.56572 0 0 0 0 1 -3.3298 0 2
65 1 19.6374 3.55924 1.80449 -9.01493 2.25812 -1.83796 1 -7.39453 0.0558604 4
66 1 19.6072 1.75706 3.61572 1.41962 0.778955 -5.13115 1 -7.35663 0.0180197 4
67 1 17.8457 3.5648 3.59548 -12.1434 1.7842 -5.63462 1 -7.29664 0.113527 4
68 1 19.6238 0.0193087 1.76133 -2.20862 2.27498 -2.1201 1 -7.30887 0.00905528 4
69 1 1.78286 5.34857 0 0 0 0 1 -3.34792 0 2
70 1 0.891429 4.45714 0.891429 0 0 0 1 -6.97316 0 4
71 1 0.902173 6.29226 2.74524 5.59448 7.79064 7.38435 1 -7.31902 0.0911985 4
72 1 2.69452 4.50194 2.69092 1.39929 10.1101 -0.510212 1 -7.33987 0.0650021 4
73 1 2.67429 6.24 0.891429 0 0 0 1 -7.02991 0 4
74 1 3.60305 5.3842 1.77232 8.87302 3.44488 -3.35942 1 -7.37669 0.0634148 4
75 1 0 7.13143 0 0 0 0 1 -3.34967 0 2
76 1 1.79441 7.15708 1.77724 -4.04116 -6.37421 0.641651 1 -7.33005 0.0357106 4
77 1 0.891429 8.02286 0.891429 0 0 0 1 -7.03304 0 4
78 1 2.71095 8.06969 2.66685 -1.54448 -1.2495 0.78765 1 -7.28632 0.00284265 4
79 1 3.56572 7.13143 0 0 0 0 1 -3.30665 0 2
80 1 1.82681 5.39543 3.61104 -5.24418 6.29439 -5.90358 1 -7.35917 0.0634707 4
81 1 3.58574 7.14807 3.61665 -5.67124 1.97122 3.42345 1 -7.24032 0.0297325 4
128 1 0.00855113 5.39127 1.83426 0.398574 4.51783 -1.64648 1 -7.27839 0.0144904 4
83 1 5.34857 5.34857 0 0 0 0 1 -3.32308 0 2
84 1 4.45714 4.45714 0.891429 0 0 0 1 -7.00939 0 4
85 1 4.47599 6.22323 2.65553 -1.61048 -0.618567 4.42576 1 -7.31639 0.0140442 4
86 1 6.22052 4.44341 2.66046 -5.43892 -4.47254 5.21355 1 -7.26766 0.0477815 4
87 1 6.24 6.24 0.891429 0 0 0 1 -7.04155 0 4
88 1 7.12967 5.3397 1.77675 -4.35965 -2.44348 -3.3348 1 -7.32023 0.0224684 4
89 1 8.02286 4.45714 0.891429 0 0 0 1 -7.0089 0 4
90 1 8.00774 6.17361 2.77084 -1.28527 -0.607819 -1.72915 1 -7.30387 0.00311917 4
91 1 5.36468 7.13545 1.77641 -4.99328 -2.2943 -0.750284 1 -7.37462 0.0191456 4
92 1 4.45714 8.02286 0.891429 0 0 0 1 -7.01512 0 4
93 1 6.20183 8.01821 2.6582 6.10107 9.06464 -5.08792 1 -7.33629 0.0904246 4
94 1 7.13143 7.13143 0 0 0 0 1 -3.31996 0 2
95 1 8.02286 8.02286 0.891429 0 0 0 1 -7.02672 0 4
96 1 5.3163 5.35425 3.53079 1.48868 -1.35491 0.673267 1 -7.31396 0.00280417 4
97 1 7.15178 7.1046 3.55281 2.58895 -5.03164 2.43327 1 -7.28114 0.0236154 4
98 1 8.91429 5.34857 0 0 0 0 1 -3.31235 0 2
99 1 9.77615 4.45577 2.67678 -6.48539 4.9112 -1.52919 1 -7.37169 0.0426477 4
100 1 9.80572 6.24 0.891429 0 0 0 1 -7.00922 0 4
101 1 10.6637 5.32709 1.76809 -3.27755 3.14456 -4.08659 1 -7.32918 0.0232357 4
102 1 12.48 5.34857 0 0 0 0 1 -3.33783 0 2
103 1 11.5886 4.45714 0.891429 0 0 0 1 -7.03879 0 4
104 1 11.5965 6.23278 2.64355 2.80138 -0.0591648 -2.49992 1 -7.37246 0.00877675 4
105 1 8.90796 7.09517 1.80907 -11.9756 0.280313 -0.866225 1 -7.25129 0.089781 4
106 1 9.81764 8.00127 2.69605 0.75907 -3.48266 -3.79489 1 -7.34044 0.0168717 4
107 1 10.6971 7.13143 0 0 0 0 1 -3.34 0 2
108 1 12.4869 7.08918 1.79129 -1.97069 0.119995 -7.19483 1 -7.34552 0.0346465 4
109 1 11.5886 8.02286 0.891429 0 0 0 1 -6.9544 0 4
110 1 8.92292 5.34374 3.60295 5.02224 0.0893988 1.56795 1 -7.38583 0.0172346 4
111 1 12.4622 5.36216 3.57169 1.23963 3.16219 -2.4207 1 -7.26694 0.0108277 4
112 1 10.7018 7.12486 3.56259 -0.025056 -5.11777 1.75562 1 -7.38021 0.0182212 4
113 1 13.4134 4.39568 2.67898 2.54508 -0.418414 4.57225 1 -7.23354 0.0171528 4
114 1 13.3714 6.24 0.891429 0 0 0 1 -7.06325 0 4
115 1 14.2377 5.37521 1.76501 1.70434 -0.760541 -7.26693 1 -7.26599 0.0350373 4
116 1 16.0457 5.34857 0 0 0 0 1 -3.33084 0 2
117 1 15.1543 4.45714 0.891429 0 0 0 1 -6.9858 0 4
118 1 15.1934 6.25571 2.65763 5.28287 -8.91311 6.75804 1 -7.26409 0.0952458 4
119 1 16.924 4.46261 2.67083 0.758746 -1.38791 2.42517 1 -7.29836 0.00521806 4
120 1 16.9371 6.24 0.891429 0 0 0 1 -7.00961 0 4
121 1 13.383 8.04956 2.68549 -3.0447 -1.70168 -12.6667 1 -7.26407 0.107437 4
122 1 14.2629 7.13143 0 0 0 0 1 -3.35741 0 2
123 1 16.0771 7.14851 1.75193 2.7212 -4.50528 -4.58589 1 -7.39502 0.0303326 4
124 1 15.1543 8.02286 0.891429 0 0 0 1 -7.00905 0 4
125 1 16.9347 8.03658 2.64817 -5.83809 -7.3194 -7.46574 1 -7.30455 0.0892522 4
126 1 16.014 5.31104 3.61549 -3.97839 2.73429 1.28294 1 -7.31364 0.0155295 4
127 1 14.2839 7.13272 3.58339 6.10633 -10.0236 1.61343 1 -7.28264 0.0873654 4
82 1 21.3681 7.16621 3.58 -2.66973 -1.37954 8.01101 1 -7.34484 0.0455658 4
129 1 17.8201 5.32501 1.79622 -0.670223 3.71221 -1.09763 1 -7.38147 0.00960684 4
130 1 19.6114 5.34857 0 0 0 0 1 -3.34031 0 2
131 1 18.72 4.45714 0.891429 0 0 0 1 -7.00425 0 4
132 1 18.7189 6.22888 2.66927 1.67622 1.46508 1.71701 1 -7.34594 0.00491984 4
133 1 20.5034 4.45232 2.68523 -4.19826 3.39871 0.687343 1 -7.27429 0.0184543 4
134 1 20.5029 6.24 0.891429 0 0 0 1 -6.97719 0 4
135 1 17.8286 7.13143 0 0 0 0 1 -3.31635 0 2
136 1 19.5607 7.11711 1.7808 -1.79438 -4.98645 5.44984 1 -7.37276 0.0359671 4
137 1 18.72 8.02286 0.891429 0 0 0 1 -7.04766 0 4
138 1 20.4741 8.02297 2.64246 2.4193 -2.77276 6.4823 1 -7.34876 0.0345828 4
139 1 19.6067 5.34388 3.60578 3.29332 5.06508 7.72994 1 -7.3572 0.0599104 4
140 1 17.8393 7.11462 3.58114 0.137737 4.87888 3.18286 1 -7.34777 0.0211333 4
141 1 1.78286 8.91429 0 0 0 0 1 -3.3272 0 2
142 1 0.918287 9.77569 2.68057 -1.21561 -5.36213 4.63818 1 -7.31615 0.0322061 4
143 1 2.67429 9.80572 0.891429 0 0 0 1 -7.01265 0 4
144 1 3.54667 8.92217 1.76241 3.34891 -4.36435 3.02049 1 -7.34692 0.024515 4
145 1 0 10.6971 0 0 0 0 1 -3.33526 0 2
146 1 1.76102 10.6925 1.82601 5.40517 0.895527 -6.08165 1 -7.34199 0.0417053 4
147 1 1.78286 12.48 0 0 0 0 1 -3.33269 0 2
148 1 0.891429 11.5886 0.891429 0 0 0 1 -7.01433 0 4
149 1 2.6012 11.5842 2.69374 9.55007 0.42599 1.73989 1 -7.30323 0.0587648 4
150 1 3.56572 10.6971 0 0 0 0 1 -3.34974 0 2
151 1 3.5669 12.4899 1.7986 -5.85712 1.81164 -1.42966 1 -7.30301 0.0246679 4
152 1 1.85516 8.93506 3.60005 2.67772 -2.02125 1.15976 1 -7.28484 0.007843 4
153 1 1.74256 12.4793 3.61889 1.16563 -0.316488 -11.0832 1 -7.32616 0.0773653 4
154 1 3.55164 10.6904 3.55899 4.44896 -1.11501 0.00133179 1 -7.29416 0.0130937 4
205 1 0.021523 8.88733 1.77539 7.79864 -5.71945 -1.6322 1 -7.3847 0.0598743 4
204 1 0.0274687 12.5029 1.75508 12.8013 -1.76385 -1.01066 1 -7.32697 0.104571 4
155 1 5.34857 8.91429 0 0 0 0 1 -3.32631 0 2
156 1 4.459 9.80134 2.68884 -3.53879 -3.70875 6.04788 1 -7.33881 0.0391224 4
157 1 6.24 9.80572 0.891429 0 0 0 1 -7.01814 0 4
158 1 7.12748 8.91135 1.75113 3.07487 2.94985 2.89494 1 -7.32136 0.0165174 4
159 1 8.00127 9.7958 2.71553 8.4195 3.20625 -1.41152 1 -7.27653 0.0517612 4
160 1 5.35287 10.6866 1.82171 2.93217 -7.79728 -0.567557 1 -7.33936 0.0433939 4
161 1 5.34857 12.48 0 0 0 0 1 -3.34665 0 2
162 1 4.45714 11.5886 0.891429 0 0 0 1 -6.99865 0 4
163 1 6.22671 11.5986 2.72529 5.72794 0.861818 -11.2332 1 -7.35863 0.0994245 4
164 1 7.13143 10.6971 0 0 0 0 1 -3.33727 0 2
165 1 7.10442 12.4713 1.80082 7.56648 1.74668 0.0654093 1 -7.31046 0.0375365 4
166 1 8.02286 11.5886 0.891429 0 0 0 1 -7.04816 0 4
167 1 5.36351 8.88034 3.56362 6.91696 -8.24745 0.124263 1 -7.34129 0.0721269 4
168 1 5.31088 12.5069 3.61499 -7.21336 -5.22566 -1.69452 1 -7.35325 0.0511706 4
169 1 7.17466 10.7173 3.58987 -1.85816 3.70179 8.21346 1 -7.32111 0.0526678 4
170 1 8.91429 8.91429 0 0 0 0 1 -3.33355 0 2
171 1 9.80572 9.80572 0.891429 0 0 0 1 -7.00006 0 4
172 1 10.6662 8.93109 1.77433 -2.1052 -5.75695 1.08512 1 -7.34629 0.0241202 4
173 1 12.48 8.91429 0 0 0 0 1 -3.34231 0 2
174 1 11.5855 9.79963 2.70407 -5.16854 1.61215 1.5893 1 -7.32583 0.0198173 4
175 1 8.86916 10.7388 1.78173 -4.07851 -1.94089 0.444696 1 -7.25121 0.0128214 4
176 1 8.91429 12.48 0 0 0 0 1 -3.33457 0 2
177 1 9.82025 11.5895 2.6811 -1.44103 2.76484 11.5096 1 -7.35628 0.0885038 4
178 1 10.6971 10.6971 0 0 0 0 1 -3.32759 0 2
179 1 10.7055 12.4692 1.80964 -1.076 7.26646 -5.58014 1 -7.34583 0.0529668 4
180 1 12.4714 10.6634 1.77548 -2.77206 1.46147 -1.9008 1 -7.3234 0.00836121 4
181 1 12.48 12.48 0 0 0 0 1 -3.32688 0 2
182 1 11.5886 11.5886 0.891429 0 0 0 1 -7.00965 0 4
183 1 8.93492 8.87597 3.61335 4.09192 1.1315 6.38677 1 -7.29563 0.0366079 4
184 1 12.4962 8.91127 3.61264 -2.89411 6.58145 -6.35348 1 -7.31893 0.0572994 4
185 1 8.92343 12.4987 3.56732 -8.98052 2.64816 1.05279 1 -7.25249 0.0552533 4
186 1 10.6937 10.6543 3.56528 2.06694 -8.63472 2.54071 1 -7.36811 0.0530842 4
187 1 12.4324 12.4859 3.54583 3.82252 -1.25155 1.90236 1 -7.40159 0.0123222 4
188 1 13.3714 9.80572 0.891429 0 0 0 1 -7.04499 0 4
189 1 14.2857 8.9715 1.75388 -1.49866 -0.846962 -0.43298 1 -7.34709 0.00196114 4
190 1 16.0457 8.91429 0 0 0 0 1 -3.31031 0 2
191 1 15.1604 9.82855 2.64739 -1.90226 8.40674 -1.47056 1 -7.34478 0.0475872 4
192 1 16.9371 9.80572 0.891429 0 0 0 1 -6.99784 0 4
193 1 13.3367 11.5698 2.67026 1.07358 -7.70839 -0.929136 1 -7.28993 0.0382389 4
194 1 14.2629 10.6971 0 0 0 0 1 -3.32303 0 2
195 1 14.2337 12.4489 1.73599 -3.77666 0.325686 -4.11157 1 -7.32156 0.0194659 4
196 1 16.0869 10.7554 1.77152 -5.5796 0.720846 -2.89725 1 -7.35415 0.0249254 4
197 1 16.0457 12.48 0 0 0 0 1 -3.32027 0 2
198 1 15.1543 11.5886 0.891429 0 0 0 1 -7.01942 0 4
199 1 16.9605 11.6219 2.63922 -1.36106 -2.46096 4.65989 1 -7.39536 0.0184384 4
200 1 16.0632 8.90912 3.52871 0.0667043 2.44386 7.43337 1 -7.34587 0.0381123 4
201 1 14.265 10.6575 3.54151 9.71611 -3.40914 4.80893 1 -7.30537 0.0803869 4
202 1 16.0702 12.4495 3.55189 -2.86297 2.33241 -6.48486 1 -7.35445 0.034663 4
203 1 21.3699 10.6856 3.57115 0.794375 -1.61818 -4.80073 1 -7.25903 0.0163677 4
206 1 17.8435 8.91796 1.73659 2.67762 3.79442 -6.18361 1 -7.34 0.0372237 4
207 1 19.6114 8.91429 0 0 0 0 1 -3.32679 0 2
208 1 18.67 9.78694 2.66927 1.78855 2.07948 -1.69631 1 -7.30183 0.00647361 4
209 1 20.5029 9.80572 0.891429 0 0 0 1 -7.01518 0 4
210 1 17.8286 10.6971 0 0 0 0 1 -3.3031 0 2
211 1 17.8639 12.5275 1.74862 5.58512 4.71534 -5.64489 1 -7.37725 0.0530885 4
212 1 19.615 10.6847 1.73288 -2.31786 0.71437 -6.91574 1 -7.30559 0.0334307 4
213 1 19.6114 12.48 0 0 0 0 1 -3.32291 0 2
214 1 18.72 11.5886 0.891429 0 0 0 1 -7.00024 0 4
215 1 20.4849 11.5872 2.65302 -2.32674 -2.49262 -8.77019 1 -7.29091 0.0551115 4
216 1 19.5961 8.89397 3.53499 11.8719 5.63119 -5.5984 1 -7.36706 0.126972 4
217 1 17.8367 10.7252 3.53616 -11.2667 6.11702 -2.43951 1 -7.37987 0.106004 4
218 1 19.6037 12.4971 3.56663 7.06154 -0.797922 -0.761799 1 -7.33101 0.031795 4
219 1 0.879386 13.3878 2.6549 -2.93856 -1.22182 -2.06916 1 -7.3441 0.00896882 4
220 1 2.67429 13.3714 0.891429 0 0 0 1 -7.00876 0 4
221 1 0 14.2629 0 0 0 0 1 -3.30095 0 2
222 1 1.78312 14.256 1.76239 4.47322 -4.05146 -1.2974 1 -7.34956 0.0237189 4
223 1 1.78286 16.0457 0 0 0 0 1 -3.31037 0 2
224 1 0.891429 15.1543 0.891429 0 0 0 1 -7.05425 0 4
225 1 0.866346 16.9042 2.6709 -1.63093 1.88058 4.1639 1 -7.3044 0.0146485 4
226 1 2.67152 15.1388 2.69294 -1.36481 -0.637593 2.04226 1 -7.35236 0.00400845 4
227 1 2.67429 16.9371 0.891429 0 0 0 1 -7.00331 0 4
228 1 3.56572 14.2629 0 0 0 0 1 -3.33154 0 2
229 1 3.54639 16.0216 1.74287 3.81666 2.32007 -1.29733 1 -7.34275 0.0134648 4
230 1 1.79363 16.0124 3.55139 1.54136 6.17107 -1.84558 1 -7.37562 0.0273021 4
231 1 3.56062 14.2595 3.60595 -7.33843 6.46939 -5.69241 1 -7.38315 0.0797385 4
233 1 0.00165081 16.0259 1.74474 5.61077 3.34795 0.886365 1 -7.34543 0.0270601 4
232 1 0.0105932 14.2846 3.54279 0.655709 3.12864 -2.90992 1 -7.39931 0.0116307 4
234 1 4.44542 13.4135 2.70817 5.02689 8.95739 1.84087 1 -7.30936 0.067778 4
235 1 6.24 13.3714 0.891429 0 0 0 1 -7.0267 0 4
236 1 7.97336 13.391 2.71277 5.028 1.68624 0.468283 1 -7.32182 0.0176417 4
237 1 5.38581 14.295 1.77757 8.2876 -5.71136 -5.31537 1 -7.31771 0.0806397 4
238 1 5.34857 16.0457 0 0 0 0 1 -3.33463 0 2
239 1 4.45714 15.1543 0.891429 0 0 0 1 -7.01809 0 4
240 1 4.4675 16.9488 2.6337 1.42148 -4.51912 -0.641738 1 -7.32466 0.0142255 4
241 1 6.27443 15.1667 2.73517 -6.33002 1.40776 -2.68656 1 -7.31288 0.0306661 4
242 1 6.24 16.9371 0.891429 0 0 0 1 -7.05033 0 4
243 1 7.13143 14.2629 0 0 0 0 1 -3.32769 0 2
244 1 7.16505 16.0617 1.78069 -3.33229 1.47376 -4.0419 1 -7.29024 0.018432 4
245 1 8.02286 15.1543 0.891429 0 0 0 1 -7.03119 0 4
246 1 8.03556 16.9456 2.67766 6.63303 2.62665 -4.08036 1 -7.39883 0.0420422 4
247 1 5.39334 16.0901 3.55104 2.93975 5.71664 0.315514 1 -7.32795 0.0257819 4
248 1 7.10744 14.2612 3.61862 9.34955 -0.997066 3.10857 1 -7.35416 0.0610422 4
249 1 9.80572 13.3714 0.891429 0 0 0 1 -7.0241 0 4
250 1 11.5727 13.3522 2.70975 1.59942 -0.244766 -0.560795 1 -7.31576 0.00182528 4
251 1 8.8727 14.244 1.77198 1.78431 9.94514 -0.264974 1 -7.30709 0.063587 4
252 1 8.91429 16.0457 0 0 0 0 1 -3.33754 0 2
253 1 9.73603 15.132 2.71169 5.19732 4.20042 4.39975 1 -7.28478 0.0398437 4
254 1 9.80572 16.9371 0.891429 0 0 0 1 -7.02515 0 4
255 1 10.6971 14.2629 0 0 0 0 1 -3.35154 0 2
256 1 10.6919 16.06 1.78142 -9.40072 -0.691429 -2.14305 1 -7.29143 0.0581622 4
257 1 12.4695 14.3012 1.77241 -0.125521 1.38086 5.47583 1 -7.29558 0.0198599 4
258 1 12.48 16.0457 0 0 0 0 1 -3.32208 0 2
259 1 11.5886 15.1543 0.891429 0 0 0 1 -7.04795 0 4
260 1 11.5723 16.9337 2.67882 -11.1201 -5.33744 -3.02562 1 -7.37071 0.100397 4
261 1 8.83897 16.0352 3.53177 -3.7945 -2.5304 -3.03934 1 -7.32354 0.0186969 4
262 1 10.6207 14.2432 3.58629 0.773153 -6.63615 4.74828 1 -7.32247 0.0418161 4
263 1 12.4768 16.0505 3.52491 8.93923 0.0101346 -1.16998 1 -7.26502 0.0505901 4
264 1 13.3714 13.3714 0.891429 0 0 0 1 -6.97499 0 4
265 1 15.1279 13.3645 2.67206 0.70446 6.72892 2.87379 1 -7.28962 0.0336317 4
266 1 16.9371 13.3714 0.891429 0 0 0 1 -7.00759 0 4
267 1 13.4219 15.1395 2.63476 -3.40488 -10.2455 -1.83329 1 -7.31624 0.0746447 4
268 1 13.3714 16.9371 0.891429 0 0 0 1 -7.05038 0 4
269 1 14.2629 14.2629 0 0 0 0 1 -3.31763 0 2
270 1 14.2694 16.0294 1.744 -6.58993 -0.471916 4.91282 1 -7.3469 0.0421916 4
271 1 16.0048 14.2479 1.79624 2.26527 -0.861188 -1.54759 1 -7.33122 0.00514628 4
272 1 16.0457 16.0457 0 0 0 0 1 -3.35192 0 2
273 1 15.1543 15.1543 0.891429 0 0 0 1 -7.00453 0 4
274 1 15.1532 16.9253 2.69958 -1.08829 -0.128395 10.9584 1 -7.29363 0.0754924 4
275 1 16.8913 15.1948 2.68728 -2.47404 0.0966618 2.19648 1 -7.31657 0.00681851 4
276 1 16.9371 16.9371 0.891429 0 0 0 1 -7.02392 0 4
277 1 14.267 14.2254 3.52462 6.31121 -1.40534 -6.48052 1 -7.37787 0.0521616 4
278 1 16.0084 16.0689 3.57893 1.83391 -7.17688 -6.39603 1 -7.37397 0.059616 4
279 1 18.7403 13.3952 2.63006 3.27969 5.01074 -1.89812 1 -7.33562 0.0245651 4
280 1 20.5029 13.3714 0.891429 0 0 0 1 -7.02164 0 4
281 1 17.8286 14.2629 0 0 0 0 1 -3.32182 0 2
282 1 17.7939 16.059 1.77846 6.4824 6.64754 3.22445 1 -7.34564 0.0601316 4
283 1 19.658 14.2699 1.77041 2.82697 5.13943 -0.273205 1 -7.31396 0.0214613 4
284 1 19.6114 16.0457 0 0 0 0 1 -3.30464 0 2
285 1 18.72 15.1543 0.891429 0 0 0 1 -6.98783 0 4
286 1 18.6826 16.98 2.67739 1.08998 6.43388 -5.82816 1 -7.32783 0.0476469 4
287 1 20.5313 15.2126 2.67727 10.8907 4.43538 -4.66406 1 -7.33722 0.0996091 4
288 1 20.5029 16.9371 0.891429 0 0 0 1 -7.06842 0 4
289 1 17.8116 14.2878 3.55871 -1.20971 -2.58436 -1.77364 1 -7.34308 0.00702602 4
290 1 19.5957 16.0511 3.55518 -4.65171 8.38791 -0.397357 1 -7.34779 0.0573586 4
291 1 3.5937 21.3724 3.61006 7.57129 -1.01754 11.3711 1 -7.31857 0.116806 4
293 1 0 17.8286 0 0 0 0 1 -3.32841 0 2
294 1 1.75191 17.8243 1.77787 -1.0328 5.16645 -4.70753 1 -7.32189 0.0310713 4
295 1 1.78286 19.6114 0 0 0 0 1 -3.33245 0 2
296 1 0.891429 18.72 0.891429 0 0 0 1 -7.00913 0 4
297 1 0.885849 20.4894 2.68554 0.551627 4.77731 5.84438 1 -7.24816 0.0356549 4
298 1 2.67914 18.7332 2.6705 1.15457 1.0609 -4.62514 1 -7.3167 0.0148452 4
299 1 2.67429 20.5029 0.891429 0 0 0 1 -7.03319 0 4
300 1 3.56572 17.8286 0 0 0 0 1 -3.32629 0 2
301 1 3.51312 19.6198 1.76958 0.232294 7.76294 9.44302 1 -7.36481 0.0930451 4
302 1 1.78182 19.616 3.59859 4.25547 0.673845 -4.95919 1 -7.35956 0.0268618 4
303 1 3.56007 17.8109 3.5413 -9.83638 4.74073 4.49289 1 -7.39185 0.0867755 4
306 1 7.1146 21.3793 3.55804 3.50395 -5.72118 4.31481 1 -7.33119 0.0396032 4
307 1 5.3747 17.8121 1.77957 -4.47538 -1.72183 -3.36645 1 -7.34157 0.0213658 4
308 1 5.34857 19.6114 0 0 0 0 1 -3.33345 0 2
309 1 4.45714 18.72 0.891429 0 0 0 1 -6.96199 0 4
310 1 4.42003 20.5324 2.6754 -4.84677 4.62545 0.470618 1 -7.30868 0.0280761 4
311 1 6.20585 18.76 2.69969 2.70604 9.32995 3.92441 1 -7.30586 0.0683248 4
312 1 6.24 20.5029 0.891429 0 0 0 1 -7.01984 0 4
313 1 7.13143 17.8286 0 0 0 0 1 -3.32572 0 2
314 1 7.13992 19.6364 1.77179 -2.22811 0.612004 -2.41135 1 -7.30087 0.00694234 4
315 1 8.02286 18.72 0.891429 0 0 0 1 -7.02574 0 4
316 1 8.02844 20.5657 2.70564 6.83616 -0.820027 -3.56647 1 -7.34023 0.0374235 4
317 1 5.32653 19.6362 3.58991 -3.38405 5.00828 1.88404 1 -7.36704 0.0249495 4
318 1 7.12891 17.8474 3.57141 -2.66775 -5.45929 0.740937 1 -7.27216 0.0233221 4
319 1 10.6938 21.3911 3.56179 -1.31986 2.0599 -3.06456 1 -7.34329 0.00957091 4
322 1 8.91303 17.8206 1.78173 -9.21787 -2.19103 -3.9482 1 -7.35431 0.0655776 4
323 1 8.91429 19.6114 0 0 0 0 1 -3.33003 0 2
324 1 9.80412 18.7625 2.6528 2.4328 -4.2652 -2.2588 1 -7.33616 0.0181827 4
325 1 9.80572 20.5029 0.891429 0 0 0 1 -7.00143 0 4
326 1 10.6971 17.8286 0 0 0 0 1 -3.32595 0 2
327 1 10.6672 19.622 1.75762 -1.35799 -0.101198 -3.15566 1 -7.40047 0.00735245 4
328 1 12.496 17.8215 1.77561 -2.54215 4.19784 -6.13694 1 -7.33648 0.0384325 4
329 1 12.48 19.6114 0 0 0 0 1 -3.34266 0 2
330 1 11.5886 18.72 0.891429 0 0 0 1 -7.00678 0 4
331 1 11.5564 20.5168 2.67057 9.62309 -0.118966 -0.0462987 1 -7.27365 0.0576492 4
332 1 8.89844 19.6496 3.58865 -2.41541 1.77606 0.505615 1 -7.35957 0.00575386 4
333 1 10.6474 17.8332 3.55368 10.1406 3.36966 0.478865 1 -7.31065 0.0712156 4
334 1 12.5028 19.6023 3.54473 -0.277557 -8.62303 -5.66561 1 -7.26388 0.0663088 4
335 1 16.0508 21.3831 1.76161 0.0290455 0.103287 2.72137 1 -7.29126 0.00461675 4
336 1 14.2974 21.3971 3.57756 3.20664 9.35336 -2.77413 1 -7.38206 0.0656434 4
337 1 13.3967 18.7541 2.67597 -3.67993 4.56347 -0.765097 1 -7.35364 0.0217553 4
338 1 13.3714 20.5029 0.891429 0 0 0 1 -7.03172 0 4
339 1 14.2629 17.8286 0 0 0 0 1 -3.33593 0 2
340 1 14.2768 19.6286 1.76578 -3.73433 -2.25892 -3.88411 1 -7.36625 0.021246 4
341 1 16.0888 17.8329 1.76297 -4.58991 -1.99561 0.829426 1 -7.3006 0.0160198 4
342 1 16.0457 19.6114 0 0 0 0 1 -3.3144 0 2
343 1 15.1543 18.72 0.891429 0 0 0 1 -7.02141 0 4
344 1 15.1545 20.5316 2.71078 0.476677 -4.11016 2.29609 1 -7.31012 0.0139378 4
345 1 16.9624 18.7539 2.68863 -8.05891 2.5503 -1.37015 1 -7.34562 0.0456409 4
346 1 16.9371 20.5029 0.891429 0 0 0 1 -7.04148 0 4
347 1 14.2724 17.8353 3.56658 3.96434 4.36647 -3.9271 1 -7.31054 0.0312484 4
348 1 16.1056 19.6466 3.5963 -1.00963 -4.00265 2.9302 1 -7.38631 0.0159507 4
349 1 17.8465 21.3588 3.60124 0.676188 -8.51824 2.86339 1 -7.39935 0.0505513 4
304 1 21.3664 17.8429 3.53723 -7.84538 -5.65821 -0.784059 1 -7.35786 0.0586201 4
305 1 21.3576 19.6425 1.75437 -5.73878 1.36959 -4.24048 1 -7.34707 0.0328585 4
351 1 17.8286 17.8286 0 0 0 0 1 -3.31992 0 2
352 1 17.8139 19.6276 1.80383 -0.182297 -1.71081 -5.85652 1 -7.31728 0.0231909 4
353 1 19.6105 17.7805 1.77954 -1.40185 5.43227 2.60775 1 -7.3118 0.0238234 4
354 1 19.6114 19.6114 0 0 0 0 1 -3.34244 0 2
355 1 18.72 18.72 0.891429 0 0 0 1 -6.94338 0 4
356 1 18.7326 20.4952 2.71867 -2.76343 2.48866 -4.61276 1 -7.28916 0.0218518 4
357 1 20.4575 18.7412 2.67112 6.59273 -0.668253 0.907844 1 -7.32378 0.0278441 4
358 1 20.5029 20.5029 0.891429 0 0 0 1 -7.04128 0 4
359 1 17.8329 17.864 3.53506 -1.15005 -4.91312 4.73908 1 -7.37501 0.0298268 4
360 1 19.5709 19.6237 3.55125 0.420019 1.17953 -1.02509 1 -7.29726 0.00162982 4
361 1 0.895929 0.890622 4.51628 0.195474 -2.1568 5.8663 1 -7.36185 0.024339 4
362 1 0.975454 2.66102 6.2965 2.2287 -2.7723 0.0861843 1 -7.3478 0.00788001 4
363 1 2.6977 0.901519 6.2628 1.1494 5.19246 6.01103 1 -7.2867 0.0400938 4
364 1 2.6595 2.68664 4.4885 -6.15324 -0.737566 -1.11338 1 -7.36623 0.0246767 4
365 1 3.57768 1.78895 5.31312 6.16937 -15.3774 6.10967 1 -7.34739 0.194105 4
366 1 1.81705 3.54188 5.38688 4.26813 -8.9928 8.36353 1 -7.29033 0.105212 4
367 1 1.79989 1.7887 7.17552 1.02206 -1.35884 4.11496 1 -7.2875 0.0123389 4
368 1 0.900991 0.873953 8.06739 -6.29777 3.17768 -2.35862 1 -7.34134 0.0344343 4
369 1 2.70569 2.75101 8.04568 10.8246 -1.63269 5.39423 1 -7.27852 0.0927019 4
370 1 3.61818 3.58926 7.11174 2.81126 0.243737 5.17718 1 -7.36562 0.0216391 4
411 1 0.0350967 1.8147 5.42389 -3.98745 4.11339 -1.45392 1 -7.29646 0.0217436 4
371 1 0.0232898 3.58449 7.15368 3.34269 6.37503 -3.45499 1 -7.27527 0.0396806 4
372 1 4.45706 0.945765 4.48096 4.53266 2.95411 -6.32944 1 -7.29093 0.043155 4
373 1 4.4438 2.6866 6.238 4.83046 -3.63547 -3.58442 1 -7.33556 0.0307466 4
374 1 6.29106 0.908679 6.26904 4.90171 -4.44038 1.35027 1 -7.326 0.0283621 4
375 1 6.23222 2.68868 4.47017 -0.500299 -5.49588 -1.41124 1 -7.32638 0.0201956 4
376 1 7.14568 1.77481 5.34134 -6.63782 -2.38997 -5.67896 1 -7.35939 0.0510534 4
377 1 8.00316 0.8818 4.42691 10.4881 0.796863 -6.5127 1 -7.35258 0.0952631 4
378 1 8.03972 2.67634 6.25191 0.191916 -1.33494 5.06756 1 -7.29287 0.0171161 4
379 1 5.36357 3.58745 5.35457 0.00493536 2.83622 -1.9352 1 -7.37061 0.00733789 4
380 1 5.3445 1.8178 7.15316 -0.275593 -6.40096 4.12767 1 -7.30341 0.0361542 4
381 1 4.4602 0.905641 8.02526 0.145275 -1.05412 -1.87702 1 -7.36001 0.00289768 4
382 1 6.29338 2.72707 8.01603 -4.79336 7.28667 -2.1399 1 -7.32329 0.0501993 4
383 1 8.10729 0.889326 8.05897 2.44316 3.08707 3.7416 1 -7.31361 0.0183607 4
384 1 7.16041 3.55168 7.15471 -9.58813 -0.215116 -2.5758 1 -7.36021 0.0613794 4
665 1 7.16214 0.0122959 7.16101 6.10058 -1.3321 -4.23143 1 -7.33894 0.0354139 4
385 1 5.34892 0.0360266 5.42607 -2.96248 -3.59421 -5.66045 1 -7.30779 0.0334463 4
386 1 9.81025 0.876598 6.30981 0.313919 3.19288 6.42761 1 -7.34626 0.0321217 4
387 1 9.8427 2.69352 4.48859 -4.54449 -1.79818 -2.3311 1 -7.37532 0.0182494 4
388 1 10.6912 1.78161 5.40316 -6.44012 -4.14973 0.559156 1 -7.34267 0.0367281 4
389 1 11.5866 0.888724 4.51067 -1.89487 -4.28277 8.49006 1 -7.3387 0.0585166 4
390 1 11.5888 2.64943 6.27031 -2.11669 1.43604 1.71256 1 -7.30013 0.00589777 4
391 1 8.97217 3.60883 5.35081 2.58082 0.176609 -6.40187 1 -7.30958 0.0296747 4
392 1 12.4427 3.57622 5.36429 9.39054 1.1112 -1.12835 1 -7.37616 0.0564479 4
393 1 8.95629 1.75989 7.18538 4.16554 2.37634 -0.22606 1 -7.32099 0.0143468 4
394 1 9.82083 2.68505 8.05094 4.39421 5.85694 10.0134 1 -7.28664 0.0957799 4
395 1 12.4673 1.72734 7.17744 0.874517 5.57104 -4.31378 1 -7.35731 0.0313764 4
396 1 11.5824 0.87395 8.05074 -1.66533 0.763077 -7.58522 1 -7.31279 0.0379003 4
397 1 10.6861 3.58935 7.12508 0.576043 -4.35471 1.98323 1 -7.3313 0.014458 4
679 1 8.92401 0.0364335 5.344 -0.123275 -1.64771 -3.40462 1 -7.30145 0.00891412 4
398 1 13.3685 0.8438 6.26748 -0.744002 -3.42315 -1.04928 1 -7.35472 0.00832338 4
399 1 13.3658 2.68596 4.49759 -2.37502 5.64013 -1.77056 1 -7.27917 0.0252622 4
400 1 14.2548 1.77089 5.41612 0.154167 -4.05345 -3.33862 1 -7.34277 0.0171794 4
401 1 15.1772 0.874814 4.49018 5.74002 3.91399 1.65006 1 -7.28954 0.0317374 4
402 1 15.1196 2.68848 6.26797 -11.5416 1.6366 3.28393 1 -7.41988 0.0912922 4
403 1 16.9487 0.943336 6.28329 -0.218586 -6.74098 5.23805 1 -7.33877 0.0453909 4
404 1 16.9387 2.69423 4.51361 0.800207 8.50438 -2.9468 1 -7.29826 0.0508201 4
405 1 16.0312 3.55532 5.40992 -1.41626 -0.996222 1.50355 1 -7.3695 0.0032733 4
406 1 13.3434 2.66528 8.03395 -0.49725 -5.62912 7.79681 1 -7.31785 0.0577141 4
407 1 16.0217 1.84779 7.18407 2.34718 -8.75091 1.78721 1 -7.29319 0.0530816 4
408 1 15.1313 0.898211 8.03469 -0.813142 -2.0485 -4.24613 1 -7.36961 0.0142456 4
409 1 16.9512 2.65108 8.09267 7.13487 8.57772 2.40079 1 -7.37799 0.0810694 4
410 1 14.2262 3.58543 7.12149 12.0613 -0.0135299 2.16702 1 -7.36918 0.0934703 4
694 1 16.0676 0.013516 5.3942 5.64122 -1.23994 6.02409 1 -7.32136 0.0433522 4
412 1 17.8604 1.80686 5.42758 0.136013 4.16497 -6.83522 1 -7.33845 0.0398887 4
413 1 18.714 0.886377 4.50091 -0.367026 3.41794 -7.44673 1 -7.38821 0.0418711 4
414 1 18.7483 2.73302 6.26729 -0.546576 -1.42362 1.32216 1 -7.34049 0.00253547 4
415 1 20.5361 0.877626 6.28989 4.3812 2.73933 4.97687 1 -7.30018 0.0320351 4
416 1 20.4904 2.6717 4.5282 2.43676 2.48247 0.284944 1 -7.28345 0.00758215 4
417 1 19.6205 3.60109 5.34622 -1.64186 -1.28336 -2.88805 1 -7.40737 0.00789458 4
418 1 19.627 1.81403 7.20421 2.19088 -6.35435 1.10515 1 -7.26455 0.02888 4
419 1 18.7161 0.870167 8.08362 1.62944 1.06285 3.06747 1 -7.26465 0.00821233 4
420 1 20.5385 2.69855 8.08645 1.77677 5.3507 0.949999 1 -7.27149 0.0203468 4
421 1 17.8177 3.57928 7.18056 4.61031 -2.97148 5.57139 1 -7.28902 0.0380458 4
709 1 17.7412 0.0489664 7.13983 -4.88057 4.04492 2.92254 1 -7.21654 0.0303262 4
422 1 19.62 0.0210118 5.39054 12.8178 -4.57344 2.88262 1 -7.31551 0.120453 4
423 1 0.939686 4.50572 4.45584 1.14737 0.607126 3.4935 1 -7.32005 0.00864526 4
424 1 0.888135 6.28191 6.29637 -0.912355 0.908767 3.55516 1 -7.33395 0.00889908 4
425 1 2.71963 4.50697 6.25095 6.26912 3.01915 -3.95425 1 -7.27681 0.0398684 4
426 1 2.66557 6.28606 4.52784 0.817951 -7.90406 3.55691 1 -7.38101 0.0471767 4
427 1 3.55808 5.35895 5.35915 3.01827 0.303613 4.6094 1 -7.3587 0.0189521 4
428 1 1.78769 7.13413 5.34107 -3.30751 -3.86818 -1.29216 1 -7.26217 0.0171616 4
429 1 0.906936 8.06203 4.48153 2.43228 -2.14505 -7.92625 1 -7.32249 0.0456504 4
430 1 2.7148 8.06398 6.23746 3.42467 5.38397 4.46477 1 -7.2883 0.0377499 4
431 1 1.80702 5.38163 7.17528 -1.37733 0.833109 4.68454 1 -7.3415 0.0152718 4
432 1 0.942995 4.48899 8.08064 -10.7762 -8.39642 5.10692 1 -7.29846 0.132395 4