ITEM: TIMESTEP
49125175
ITEM: NUMBER OF ATOMS
3060
ITEM: BOX BOUNDS pp pp mm
0.0000000000000000e+00 2.1394294200000001e+01
0.0000000000000000e+00 2.1394294200000001e+01
-5.3491084073550004e-03 5.3485735499999997e+01
ITEM: ATOMS id type x y z vx vy vz c_clusts c_atom_pe c_atom_ke c_atom_coord
1 1 0 0 0 0 0 0 1 -3.33232 0 2
2 1 1.78286 1.78286 0 0 0 0 1 -3.34004 0 2
3 1 0.891429 0.891429 0.891429 0 0 0 1 -7.01944 0 4
4 1 0.902634 2.63987 2.69843 4.23303 -1.58065 0.0402537 1 -7.31995 0.0127091 4
5 1 2.67693 0.884588 2.74244 7.28766 6.30564 5.17181 1 -7.208 0.0744538 4
6 1 2.67429 2.67429 0.891429 0 0 0 1 -7.00786 0 4
7 1 3.56572 0 0 0 0 0 1 -3.3379 0 2
8 1 3.58573 1.79906 1.76362 6.61508 7.02117 4.5875 1 -7.31884 0.0710196 4
9 1 0 3.56572 0 0 0 0 1 -3.35749 0 2
10 1 1.77889 3.58977 1.77889 2.91709 6.78674 -5.51752 1 -7.29728 0.0529138 4
11 1 3.56572 3.56572 0 0 0 0 1 -3.33361 0 2
12 1 1.77172 1.75779 3.64031 -3.67059 2.20377 -5.83117 1 -7.37309 0.032573 4
13 1 3.52041 3.57372 3.57432 1.19644 -11.4288 -0.468882 1 -7.34733 0.0823279 4
292 1 1.79587 0.00968006 1.77892 5.33631 -0.933388 -3.27153 1 -7.30705 0.0249284 4
56 1 0.0740926 3.55995 3.6023 -1.38884 0.377795 -0.349947 1 -7.20054 0.00136564 4
14 1 5.34857 1.78286 0 0 0 0 1 -3.32644 0 2
15 1 4.45714 0.891429 0.891429 0 0 0 1 -7.02285 0 4
16 1 4.45552 2.69672 2.64665 6.68226 11.8746 -4.77558 1 -7.34573 0.129755 4
17 1 6.21427 0.909456 2.67095 7.78087 1.06058 -10.2227 1 -7.31405 0.103428 4
18 1 6.24 2.67429 0.891429 0 0 0 1 -7.00647 0 4
19 1 7.13143 0 0 0 0 0 1 -3.3439 0 2
20 1 7.15501 1.7666 1.74996 -4.38882 -1.50078 2.95033 1 -7.30661 0.0188088 4
21 1 8.02286 0.891429 0.891429 0 0 0 1 -7.04881 0 4
22 1 8.06509 2.71054 2.66071 5.2106 -2.97826 -4.65966 1 -7.28381 0.0359345 4
23 1 5.35275 3.56656 1.77754 4.22984 4.4136 -5.93403 1 -7.38994 0.0451782 4
24 1 7.13143 3.56572 0 0 0 0 1 -3.32146 0 2
25 1 5.36866 1.83889 3.53177 -1.81702 -1.32781 8.20749 1 -7.40374 0.0450808 4
26 1 7.17276 3.57336 3.60927 -7.1958 -6.45839 -2.61447 1 -7.22964 0.0624454 4
27 1 5.32064 -0.00454541 1.7703 -3.67987 -10.9533 4.19377 1 -7.36827 0.0940513 4
28 1 8.91429 1.78286 0 0 0 0 1 -3.32807 0 2
29 1 9.84629 0.91313 2.64045 -2.75581 -0.937611 2.00177 1 -7.33802 0.00776829 4
30 1 9.80572 2.67429 0.891429 0 0 0 1 -7.06246 0 4
31 1 10.6971 0 0 0 0 0 1 -3.32792 0 2
32 1 10.7018 1.81172 1.77556 1.97027 1.04586 -4.66827 1 -7.34085 0.0166615 4
33 1 12.48 1.78286 0 0 0 0 1 -3.312 0 2
34 1 11.5886 0.891429 0.891429 0 0 0 1 -6.97293 0 4
35 1 11.6463 2.67405 2.69836 -0.576368 -3.91411 2.8854 1 -7.32685 0.0149246 4
36 1 8.93366 3.56782 1.77911 -8.83765 -0.534426 -1.8033 1 -7.38252 0.0508158 4
37 1 10.6971 3.56572 0 0 0 0 1 -3.31085 0 2
38 1 12.4895 3.56039 1.77609 -1.39587 -4.64007 -8.11635 1 -7.34521 0.0556162 4
39 1 8.93363 1.80055 3.57217 -0.8533 -6.94748 -1.75305 1 -7.31106 0.032409 4
40 1 12.5247 1.74729 3.59887 5.19193 -7.73838 2.32263 1 -7.34837 0.0574084 4
41 1 10.7425 3.56781 3.56038 0.670107 2.79216 -2.68211 1 -7.29323 0.00960959 4
321 1 12.525 0.005667 1.77146 1.01584 -7.83786 0.213599 1 -7.3221 0.0389076 4
320 1 8.93557 0.0524354 1.76692 6.63672 -0.772273 -7.93431 1 -7.37174 0.0669704 4
42 1 13.4 0.904391 2.71534 -6.95954 7.07262 1.12666 1 -7.41233 0.0620724 4
43 1 13.3714 2.67429 0.891429 0 0 0 1 -7.00465 0 4
44 1 14.2629 0 0 0 0 0 1 -3.31563 0 2
45 1 14.2767 1.76641 1.7889 6.11442 8.70867 3.16944 1 -7.34889 0.076728 4
46 1 16.0457 1.78286 0 0 0 0 1 -3.33238 0 2
47 1 15.1543 0.891429 0.891429 0 0 0 1 -7.05161 0 4
48 1 15.1681 2.66032 2.69376 -4.13523 7.00324 -7.14878 1 -7.32847 0.0729798 4
49 1 16.9966 0.859351 2.68677 2.1419 5.32554 -4.03938 1 -7.30745 0.0306643 4
50 1 16.9371 2.67429 0.891429 0 0 0 1 -7.03483 0 4
51 1 14.2629 3.56572 0 0 0 0 1 -3.3247 0 2
52 1 16.0342 3.56459 1.76982 -6.86268 5.46776 -1.92617 1 -7.36147 0.0502317 4
53 1 16.1018 1.77362 3.58054 9.38435 3.95234 -0.614362 1 -7.30335 0.0647724 4
54 1 14.2883 3.55338 3.59392 -10.3589 -6.09779 1.20468 1 -7.4174 0.0908375 4
336 1 14.3026 0.0234601 3.57498 1.45152 8.35401 0.520502 1 -7.34022 0.0449189 4
350 1 21.381 0.0118642 3.67053 -1.32701 2.14892 5.09749 1 -7.3311 0.0201437 4
55 1 21.3897 1.77303 1.80272 3.70404 4.33271 -4.36257 1 -7.37278 0.0320701 4
57 1 17.8286 0 0 0 0 0 1 -3.34399 0 2
58 1 17.8477 1.78101 1.78373 -1.22047 -1.70697 0.37513 1 -7.36191 0.00282831 4
59 1 19.6114 1.78286 0 0 0 0 1 -3.32698 0 2
60 1 18.72 0.891429 0.891429 0 0 0 1 -7.02583 0 4
61 1 18.7578 2.65689 2.67622 -9.02532 -3.1413 -3.89817 1 -7.34112 0.0663007 4
62 1 20.5296 0.888745 2.7254 0.802792 -2.54056 1.06602 1 -7.31669 0.00512586 4
63 1 20.5029 2.67429 0.891429 0 0 0 1 -7.01771 0 4
64 1 17.8286 3.56572 0 0 0 0 1 -3.32987 0 2
65 1 19.6165 3.5649 1.79862 -9.01977 2.62873 -3.19575 1 -7.40021 0.061296 4
66 1 19.6124 1.76145 3.60316 3.01859 3.06926 -5.80839 1 -7.35338 0.032534 4
67 1 17.8185 3.56964 3.5814 -11.2224 2.46009 -6.47036 1 -7.31634 0.108215 4
68 1 19.6238 0.0193087 1.76133 -2.20862 2.27498 -2.1201 1 -7.31896 0.00905528 4
69 1 1.78286 5.34857 0 0 0 0 1 -3.3389 0 2
70 1 0.891429 4.45714 0.891429 0 0 0 1 -6.98364 0 4
71 1 0.915145 6.30784 2.75675 5.4157 5.63154 2.52604 1 -7.31772 0.041967 4
72 1 2.69535 4.52384 2.68837 -0.646519 8.73033 -1.76763 1 -7.30363 0.0496454 4
73 1 2.67429 6.24 0.891429 0 0 0 1 -7.02451 0 4
74 1 3.61849 5.38846 1.76561 4.42452 0.29619 -2.3729 1 -7.35771 0.0157441 4
75 1 0 7.13143 0 0 0 0 1 -3.34393 0 2
76 1 1.78555 7.14247 1.78138 -3.53804 -6.10518 2.91277 1 -7.33719 0.036272 4
77 1 0.891429 8.02286 0.891429 0 0 0 1 -7.03497 0 4
78 1 2.70556 8.0625 2.67081 -3.12308 -4.95851 2.59082 1 -7.2829 0.0255523 4
79 1 3.56572 7.13143 0 0 0 0 1 -3.30618 0 2
80 1 1.81336 5.40972 3.59623 -6.22134 5.93535 -6.6459 1 -7.38882 0.0735094 4
81 1 3.5737 7.15238 3.61998 -4.67072 1.62511 -0.506185 1 -7.24448 0.0153819 4
128 1 0.00928796 5.39852 1.82785 0.247982 1.80137 -3.81554 1 -7.24761 0.0111195 4
83 1 5.34857 5.34857 0 0 0 0 1 -3.31016 0 2
84 1 4.45714 4.45714 0.891429 0 0 0 1 -7.028 0 4
85 1 4.47084 6.22668 2.66678 -2.69668 3.59775 5.27816 1 -7.304 0.029923 4
86 1 6.21072 4.43464 2.6744 -2.95981 -3.10326 6.67187 1 -7.28586 0.0391534 4
87 1 6.24 6.24 0.891429 0 0 0 1 -7.04365 0 4
88 1 7.11984 5.33319 1.7716 -4.12198 -3.19524 -1.02057 1 -7.31172 0.0175785 4
89 1 8.02286 4.45714 0.891429 0 0 0 1 -7.01885 0 4
90 1 8.00664 6.17658 2.7574 0.308521 3.08917 -9.75107 1 -7.31749 0.0651814 4
91 1 5.36468 7.13545 1.77641 -4.99328 -2.2943 -0.750284 1 -7.36653 0.0191456 4
92 1 4.45714 8.02286 0.891429 0 0 0 1 -7.01329 0 4
93 1 6.22246 8.0368 2.6472 11.7018 6.8233 -4.34058 1 -7.33864 0.125936 4
94 1 7.13143 7.13143 0 0 0 0 1 -3.32304 0 2
95 1 8.02286 8.02286 0.891429 0 0 0 1 -7.03268 0 4
96 1 5.32248 5.3492 3.53637 3.63899 -3.01663 4.20098 1 -7.32464 0.0248912 4
97 1 7.15365 7.09603 3.56166 -0.889918 -2.27875 4.97921 1 -7.2796 0.0191566 4
98 1 8.91429 5.34857 0 0 0 0 1 -3.31273 0 2
99 1 9.76698 4.4664 2.67415 -1.4286 4.2136 -0.833059 1 -7.36809 0.0127531 4
100 1 9.80572 6.24 0.891429 0 0 0 1 -6.99516 0 4
101 1 10.6598 5.33624 1.76047 -0.0973885 4.72238 -2.45773 1 -7.32429 0.0176463 4
102 1 12.48 5.34857 0 0 0 0 1 -3.33087 0 2
103 1 11.5886 4.45714 0.891429 0 0 0 1 -7.03895 0 4
104 1 11.6005 6.23129 2.64131 0.691002 -1.19447 0.435855 1 -7.37404 0.0013035 4
105 1 8.88142 7.09745 1.80689 -10.8495 1.65203 -1.07264 1 -7.26825 0.0756819 4
106 1 9.81695 7.99449 2.68666 -1.43967 -2.47112 -4.19769 1 -7.32455 0.0160584 4
107 1 10.6971 7.13143 0 0 0 0 1 -3.33803 0 2
108 1 12.4823 7.09543 1.77353 -2.01118 5.18212 -8.13248 1 -7.37583 0.060398 4
109 1 11.5886 8.02286 0.891429 0 0 0 1 -6.97561 0 4
110 1 8.93383 5.34297 3.60621 4.18679 -0.605124 1.06463 1 -7.40147 0.0118441 4
111 1 12.4688 5.3654 3.56495 4.46574 -0.433185 -3.37974 1 -7.25822 0.0196395 4
112 1 10.7011 7.11226 3.56574 -0.594826 -5.8113 0.821938 1 -7.36397 0.0216608 4
113 1 13.4158 4.40202 2.68867 -0.521076 5.87301 3.692 1 -7.2242 0.0301221 4
114 1 13.3714 6.24 0.891429 0 0 0 1 -7.07495 0 4
115 1 14.2465 5.36988 1.75131 5.88538 -3.87364 -4.41146 1 -7.27353 0.043012 4
116 1 16.0457 5.34857 0 0 0 0 1 -3.33136 0 2
117 1 15.1543 4.45714 0.891429 0 0 0 1 -6.99566 0 4
118 1 15.2011 6.23438 2.67428 1.33348 -9.49586 7.46695 1 -7.27578 0.0919354 4
119 1 16.9259 4.45697 2.67811 0.856758 -3.29625 3.73544 1 -7.31904 0.0159047 4
120 1 16.9371 6.24 0.891429 0 0 0 1 -7.01465 0 4
121 1 13.3769 8.04358 2.65705 -2.15502 -3.45401 -11.8529 1 -7.258 0.0977609 4
122 1 14.2629 7.13143 0 0 0 0 1 -3.34962 0 2
123 1 16.0771 7.14851 1.75193 2.7212 -4.50528 -4.58589 1 -7.39009 0.0303326 4
124 1 15.1543 8.02286 0.891429 0 0 0 1 -7.018 0 4
125 1 16.9247 8.01891 2.63201 -2.73306 -7.63677 -6.33854 1 -7.27703 0.0659566 4
126 1 16.0113 5.32032 3.61283 1.84553 5.00971 -3.527 1 -7.33786 0.0254839 4
127 1 14.2969 7.11095 3.58438 5.10824 -8.70318 -0.803537 1 -7.2522 0.0637894 4
82 1 21.3645 7.16411 3.5968 -0.335674 -0.442249 6.30806 1 -7.35335 0.0249592 4
129 1 17.8189 5.33583 1.79275 -0.325561 5.53473 -1.78866 1 -7.38585 0.0211242 4
130 1 19.6114 5.34857 0 0 0 0 1 -3.34218 0 2
131 1 18.72 4.45714 0.891429 0 0 0 1 -7.01467 0 4
132 1 18.7212 6.23133 2.67504 0.335745 0.727241 3.27993 1 -7.32123 0.00709536 4
133 1 20.4965 4.46094 2.68941 -1.79036 4.04003 2.88311 1 -7.25582 0.0173281 4
134 1 20.5029 6.24 0.891429 0 0 0 1 -6.9807 0 4
135 1 17.8286 7.13143 0 0 0 0 1 -3.3154 0 2
136 1 19.5607 7.11711 1.7808 -1.79438 -4.98645 5.44984 1 -7.36986 0.0359671 4
137 1 18.72 8.02286 0.891429 0 0 0 1 -7.04401 0 4
138 1 20.4814 8.01614 2.65865 3.95432 -3.09152 7.3866 1 -7.34611 0.0496423 4
139 1 19.6155 5.35666 3.61731 4.15197 5.86155 2.1836 1 -7.37073 0.0350829 4
140 1 17.8381 7.12601 3.58508 -1.29176 4.79648 0.170712 1 -7.34718 0.0153764 4
141 1 1.78286 8.91429 0 0 0 0 1 -3.33287 0 2
142 1 0.913355 9.7659 2.69238 -2.87005 -2.9768 5.36343 1 -7.31893 0.0285475 4
143 1 2.67429 9.80572 0.891429 0 0 0 1 -7.03032 0 4
144 1 3.54667 8.92217 1.76241 3.34891 -4.36435 3.02049 1 -7.35703 0.024515 4
145 1 0 10.6971 0 0 0 0 1 -3.33408 0 2
146 1 1.77383 10.6944 1.80755 5.67816 0.699656 -9.60893 1 -7.34211 0.0778422 4
147 1 1.78286 12.48 0 0 0 0 1 -3.32672 0 2
148 1 0.891429 11.5886 0.891429 0 0 0 1 -7.02388 0 4
149 1 2.62838 11.5857 2.69832 13.8942 0.847346 2.05864 1 -7.3578 0.123243 4
150 1 3.56572 10.6971 0 0 0 0 1 -3.33932 0 2
151 1 3.55234 12.4939 1.79555 -6.50401 1.72245 -1.17076 1 -7.28796 0.0290297 4
152 1 1.85381 8.92858 3.59986 -3.76988 -3.59113 -1.28735 1 -7.31 0.0179044 4
153 1 1.74491 12.4788 3.59174 0.926992 -0.0821278 -12.2698 1 -7.31033 0.0942447 4
154 1 3.56182 10.6891 3.56307 4.34159 -0.149551 3.67951 1 -7.32022 0.0201732 4
205 1 0.021523 8.88733 1.77539 7.79864 -5.71945 -1.6322 1 -7.37406 0.0598743 4
204 1 0.0274687 12.5029 1.75508 12.8013 -1.76385 -1.01066 1 -7.33402 0.104571 4
155 1 5.34857 8.91429 0 0 0 0 1 -3.32936 0 2
156 1 4.45075 9.79258 2.70096 -3.39959 -3.9148 4.3864 1 -7.33014 0.0287084 4
157 1 6.24 9.80572 0.891429 0 0 0 1 -7.02292 0 4
158 1 7.134 8.91801 1.76214 2.68338 2.89532 6.47294 1 -7.34804 0.0357785 4
159 1 8.02286 9.80361 2.70936 10.1198 3.60877 -3.70203 1 -7.26811 0.0803796 4
160 1 5.35903 10.6706 1.81815 2.36252 -5.95184 -2.51771 1 -7.32632 0.0294686 4
161 1 5.34857 12.48 0 0 0 0 1 -3.35152 0 2
162 1 4.45714 11.5886 0.891429 0 0 0 1 -6.97477 0 4
163 1 6.24021 11.6002 2.69881 5.88606 0.478869 -11.4766 1 -7.34075 0.103689 4
164 1 7.13143 10.6971 0 0 0 0 1 -3.34366 0 2
165 1 7.12208 12.4771 1.80062 7.70248 3.26056 -0.348802 1 -7.34618 0.0436203 4
166 1 8.02286 11.5886 0.891429 0 0 0 1 -7.05291 0 4
167 1 5.37926 8.86872 3.56417 6.62076 -1.74294 0.36615 1 -7.34502 0.029258 4
168 1 5.29839 12.4936 3.6089 -3.39415 -6.11768 -3.51929 1 -7.32029 0.0381744 4
169 1 7.16785 10.7251 3.60922 -3.99586 2.88415 8.28398 1 -7.31901 0.0578294 4
170 1 8.91429 8.91429 0 0 0 0 1 -3.33424 0 2
171 1 9.80572 9.80572 0.891429 0 0 0 1 -6.99411 0 4
172 1 10.6651 8.91532 1.77945 1.06226 -7.7942 3.25244 1 -7.3671 0.0450987 4
173 1 12.48 8.91429 0 0 0 0 1 -3.34163 0 2
174 1 11.5739 9.80113 2.70462 -4.84662 -0.3594 -1.22266 1 -7.34571 0.0156315 4
175 1 8.86916 10.7388 1.78173 -4.07851 -1.94089 0.444696 1 -7.24851 0.0128214 4
176 1 8.91429 12.48 0 0 0 0 1 -3.33799 0 2
177 1 9.8143 11.5954 2.70636 -3.6862 2.44007 10.1636 1 -7.30161 0.0764593 4
178 1 10.6971 10.6971 0 0 0 0 1 -3.32977 0 2
179 1 10.7023 12.486 1.79491 -1.69532 7.13848 -6.94527 1 -7.34512 0.0635303 4
180 1 12.4645 10.6688 1.77246 -3.25532 3.11783 -0.687371 1 -7.34292 0.0129405 4
181 1 12.48 12.48 0 0 0 0 1 -3.32164 0 2
182 1 11.5886 11.5886 0.891429 0 0 0 1 -7.02236 0 4
183 1 8.94144 8.87998 3.62501 1.58914 2.34588 3.54365 1 -7.28314 0.0128132 4
184 1 12.4863 8.92379 3.59512 -5.61499 4.07182 -8.82342 1 -7.32101 0.0784011 4
185 1 8.90243 12.5027 3.57286 -8.96495 0.759805 3.82206 1 -7.27451 0.0594764 4
186 1 10.6968 10.6387 3.57207 0.479861 -4.7162 3.35378 1 -7.38091 0.0209886 4
187 1 12.4444 12.4792 3.55148 6.41779 -4.62811 2.88674 1 -7.38488 0.0441553 4
188 1 13.3714 9.80572 0.891429 0 0 0 1 -7.03126 0 4
189 1 14.2807 8.96403 1.75518 -2.7404 -5.47423 1.50925 1 -7.36895 0.0247445 4
190 1 16.0457 8.91429 0 0 0 0 1 -3.31417 0 2
191 1 15.1586 9.84624 2.64492 0.407835 6.64568 -0.564639 1 -7.33477 0.0277915 4
192 1 16.9371 9.80572 0.891429 0 0 0 1 -7.00151 0 4
193 1 13.3407 11.5527 2.66696 2.38845 -7.0171 -1.80637 1 -7.27237 0.0362298 4
194 1 14.2629 10.6971 0 0 0 0 1 -3.32299 0 2
195 1 14.227 12.4519 1.73276 -1.94 2.26174 1.3461 1 -7.29777 0.0066544 4
196 1 16.0869 10.7554 1.77152 -5.5796 0.720846 -2.89725 1 -7.3649 0.0249254 4
197 1 16.0457 12.48 0 0 0 0 1 -3.32285 0 2
198 1 15.1543 11.5886 0.891429 0 0 0 1 -7.01003 0 4
199 1 16.9583 11.6163 2.65075 -0.629172 -2.11219 5.07157 1 -7.38997 0.0190326 4
200 1 16.063 8.91681 3.54775 -0.0755131 4.11224 8.87706 1 -7.31475 0.0595777 4
201 1 14.285 10.6536 3.55568 7.3719 0.0220426 7.36293 1 -7.29557 0.0675695 4
202 1 16.0612 12.4591 3.53766 -5.00421 5.81133 -5.62817 1 -7.34072 0.0563233 4
203 1 21.3714 10.6809 3.56061 0.42746 -2.39194 -4.37433 1 -7.27042 0.0155849 4
206 1 17.8459 8.92555 1.72735 -0.654243 2.6707 -1.74771 1 -7.32146 0.00660715 4
207 1 19.6114 8.91429 0 0 0 0 1 -3.32038 0 2
208 1 18.6803 9.79432 2.66276 6.95302 4.36616 -3.98509 1 -7.303 0.0518411 4
209 1 20.5029 9.80572 0.891429 0 0 0 1 -7.0166 0 4
210 1 17.8286 10.6971 0 0 0 0 1 -3.3004 0 2
211 1 17.8739 12.5342 1.73867 3.0545 1.03448 -2.8247 1 -7.34692 0.0114396 4
212 1 19.608 10.6873 1.72321 -3.71903 1.56224 -1.46616 1 -7.31758 0.011466 4
213 1 19.6114 12.48 0 0 0 0 1 -3.32034 0 2
214 1 18.72 11.5886 0.891429 0 0 0 1 -7.0034 0 4
215 1 20.4817 11.5815 2.63409 -0.321692 -2.40647 -7.61879 1 -7.2877 0.0397983 4
216 1 19.622 8.90775 3.52443 10.2182 6.23614 -3.49162 1 -7.36869 0.0967831 4
217 1 17.8123 10.7378 3.53201 -9.51653 4.66167 -1.1169 1 -7.38254 0.0706722 4
218 1 19.6202 12.4954 3.56252 7.10326 -0.628951 -2.84583 1 -7.31744 0.0366924 4
219 1 0.874289 13.3842 2.65186 -1.41863 -1.88978 -0.61776 1 -7.36173 0.00371302 4
220 1 2.67429 13.3714 0.891429 0 0 0 1 -7.02334 0 4
221 1 0 14.2629 0 0 0 0 1 -3.29715 0 2
222 1 1.78312 14.256 1.76239 4.47322 -4.05146 -1.2974 1 -7.34633 0.0237189 4
223 1 1.78286 16.0457 0 0 0 0 1 -3.31396 0 2
224 1 0.891429 15.1543 0.891429 0 0 0 1 -7.05281 0 4
225 1 0.864491 16.9111 2.67816 0.0215716 4.12328 2.02613 1 -7.31452 0.0131376 4
226 1 2.66898 15.1376 2.69452 -0.892606 -0.2013 -0.778916 1 -7.36743 0.000898769 4
227 1 2.67429 16.9371 0.891429 0 0 0 1 -7.00899 0 4
228 1 3.56572 14.2629 0 0 0 0 1 -3.33584 0 2
229 1 3.55729 16.0286 1.74493 5.53347 3.66367 3.08277 1 -7.35137 0.033328 4
230 1 1.79495 16.0291 3.54895 -0.375415 8.28802 -0.329263 1 -7.39756 0.0429105 4
231 1 3.54458 14.2762 3.59163 -6.33346 7.91304 -6.52178 1 -7.38463 0.0904152 4
233 1 0.00165081 16.0259 1.74474 5.61077 3.34795 0.886365 1 -7.33386 0.0270601 4
232 1 0.0111775 14.2909 3.53703 0.0190767 2.45529 -1.95473 1 -7.41154 0.00613078 4
234 1 4.45777 13.4299 2.71061 5.45756 5.24413 0.186297 1 -7.27852 0.0356778 4
235 1 6.24 13.3714 0.891429 0 0 0 1 -7.04246 0 4
236 1 7.98737 13.3915 2.7112 7.1274 -1.12087 -1.82258 1 -7.35754 0.0344687 4
237 1 5.40072 14.2809 1.76883 4.50166 -6.29302 -2.21424 1 -7.33361 0.0403145 4
238 1 5.34857 16.0457 0 0 0 0 1 -3.32479 0 2
239 1 4.45714 15.1543 0.891429 0 0 0 1 -7.00471 0 4
240 1 4.46991 16.9365 2.63494 0.559628 -5.84564 1.77526 1 -7.31893 0.0234258 4
241 1 6.25976 15.1706 2.72373 -6.07142 1.89273 -7.06885 1 -7.30662 0.0562756 4
242 1 6.24 16.9371 0.891429 0 0 0 1 -7.04024 0 4
243 1 7.13143 14.2629 0 0 0 0 1 -3.33059 0 2
244 1 7.16505 16.0617 1.78069 -3.33229 1.47376 -4.0419 1 -7.28271 0.018432 4
245 1 8.02286 15.1543 0.891429 0 0 0 1 -7.0402 0 4
246 1 8.04672 16.9526 2.66713 2.89511 3.25871 -4.93073 1 -7.39544 0.0269591 4
247 1 5.39416 16.0988 3.55366 -2.38066 1.6616 1.90386 1 -7.33969 0.00750221 4
248 1 7.12902 14.2588 3.62368 9.11676 -0.921676 1.17921 1 -7.32098 0.0531274 4
249 1 9.80572 13.3714 0.891429 0 0 0 1 -7.0335 0 4
250 1 11.5744 13.3557 2.70445 -0.0114108 3.24411 -3.93573 1 -7.32503 0.016192 4
251 1 8.87856 14.2674 1.77345 3.39089 10.1836 1.55598 1 -7.30583 0.0732128 4
252 1 8.91429 16.0457 0 0 0 0 1 -3.33392 0 2
253 1 9.75098 15.1426 2.71631 7.72121 4.93651 -0.379559 1 -7.28859 0.0523649 4
254 1 9.80572 16.9371 0.891429 0 0 0 1 -7.02364 0 4
255 1 10.6971 14.2629 0 0 0 0 1 -3.34282 0 2
256 1 10.6919 16.06 1.78142 -9.40072 -0.691429 -2.14305 1 -7.3279 0.0581622 4
257 1 12.4695 14.3012 1.77241 -0.125521 1.38086 5.47583 1 -7.31628 0.0198599 4
258 1 12.48 16.0457 0 0 0 0 1 -3.32208 0 2
259 1 11.5886 15.1543 0.891429 0 0 0 1 -7.05483 0 4
260 1 11.5487 16.9232 2.67075 -8.91217 -3.58838 -3.83111 1 -7.34626 0.0665876 4
261 1 8.83731 16.0304 3.53122 2.53875 -1.41041 2.55114 1 -7.30142 0.0093008 4
262 1 10.6269 14.2301 3.59725 4.71709 -4.50672 4.5869 1 -7.33941 0.039587 4
263 1 12.4978 16.0474 3.52601 9.01613 -2.74549 2.04441 1 -7.23769 0.0578905 4
264 1 13.3714 13.3714 0.891429 0 0 0 1 -6.97859 0 4
265 1 15.1321 13.3753 2.67592 3.01926 2.4603 0.244038 1 -7.28597 0.00947864 4
266 1 16.9371 13.3714 0.891429 0 0 0 1 -7.01535 0 4
267 1 13.4094 15.119 2.63262 -7.24219 -7.35737 -0.031053 1 -7.33013 0.0663389 4
268 1 13.3714 16.9371 0.891429 0 0 0 1 -7.05261 0 4
269 1 14.2629 14.2629 0 0 0 0 1 -3.31899 0 2
270 1 14.2694 16.0294 1.744 -6.58993 -0.471916 4.91282 1 -7.31492 0.0421916 4
271 1 16.0132 14.2481 1.79144 4.91328 1.04597 -2.58901 1 -7.33759 0.0198786 4
272 1 16.0457 16.0457 0 0 0 0 1 -3.34961 0 2
273 1 15.1543 15.1543 0.891429 0 0 0 1 -7.00485 0 4
274 1 15.1505 16.9273 2.71943 -1.18551 1.69343 6.00596 1 -7.26853 0.0251116 4
275 1 16.8877 15.1912 2.69052 -0.515493 -3.22822 0.44971 1 -7.3376 0.00677784 4
276 1 16.9371 16.9371 0.891429 0 0 0 1 -7.02768 0 4
277 1 14.2795 14.2252 3.5147 4.31598 1.19357 -1.93156 1 -7.36465 0.0148033 4
278 1 16.0163 16.0509 3.56616 4.86442 -8.21542 -4.48048 1 -7.37463 0.0692327 4
279 1 18.7468 13.4072 2.6296 2.39686 5.33925 1.45905 1 -7.32878 0.0226447 4
280 1 20.5029 13.3714 0.891429 0 0 0 1 -7.0097 0 4
281 1 17.8286 14.2629 0 0 0 0 1 -3.31844 0 2
282 1 17.7939 16.059 1.77846 6.4824 6.64754 3.22445 1 -7.34189 0.0601316 4
283 1 19.661 14.2833 1.77091 -0.152492 6.44711 0.66821 1 -7.31148 0.0261637 4
284 1 19.6114 16.0457 0 0 0 0 1 -3.30207 0 2
285 1 18.72 15.1543 0.891429 0 0 0 1 -6.99018 0 4
286 1 18.6875 16.9885 2.66278 3.01926 0.885501 -6.62147 1 -7.34322 0.0334516 4
287 1 20.552 15.2164 2.66502 6.77001 -0.997831 -5.8195 1 -7.30069 0.0502269 4
288 1 20.5029 16.9371 0.891429 0 0 0 1 -7.066 0 4
289 1 17.8095 14.281 3.55376 -0.535523 -3.25236 -2.48632 1 -7.33811 0.0106101 4
290 1 19.5852 16.0717 3.55467 -4.21529 9.21379 -0.195605 1 -7.33343 0.0639238 4
291 1 3.60699 21.3742 3.63311 3.91872 2.60841 8.41573 1 -7.30106 0.0578761 4
293 1 0 17.8286 0 0 0 0 1 -3.32527 0 2
294 1 1.75191 17.8243 1.77787 -1.0328 5.16645 -4.70753 1 -7.33379 0.0310713 4
295 1 1.78286 19.6114 0 0 0 0 1 -3.33314 0 2
296 1 0.891429 18.72 0.891429 0 0 0 1 -7.00314 0 4
297 1 0.88628 20.5028 2.69921 -0.214903 6.73819 5.94989 1 -7.22438 0.0503235 4
298 1 2.67804 18.7336 2.66058 -2.16327 -0.657904 -3.94527 1 -7.34168 0.0128704 4
299 1 2.67429 20.5029 0.891429 0 0 0 1 -7.03337 0 4
300 1 3.56572 17.8286 0 0 0 0 1 -3.32069 0 2
301 1 3.51312 19.6198 1.76958 0.232294 7.76294 9.44302 1 -7.37167 0.0930451 4
302 1 1.79155 19.6158 3.58383 4.08809 -0.765887 -7.67288 1 -7.37045 0.0474116 4
303 1 3.5391 17.8238 3.55121 -8.19121 6.34798 3.95373 1 -7.38432 0.0765739 4
306 1 7.1208 21.3705 3.57029 2.07658 -1.81158 5.92223 1 -7.30101 0.0265569 4
307 1 5.36147 17.8124 1.77196 -6.83837 2.04663 -3.10129 1 -7.31669 0.0377004 4
308 1 5.34857 19.6114 0 0 0 0 1 -3.33044 0 2
309 1 4.45714 18.72 0.891429 0 0 0 1 -6.97589 0 4
310 1 4.41263 20.5398 2.6765 -1.56398 1.62103 0.54194 1 -7.3147 0.00334085 4
311 1 6.21564 18.7783 2.70586 5.56815 6.49233 1.38467 1 -7.27539 0.0467268 4
312 1 6.24 20.5029 0.891429 0 0 0 1 -7.02807 0 4
313 1 7.13143 17.8286 0 0 0 0 1 -3.32488 0 2
314 1 7.13436 19.6376 1.76933 -2.4524 0.461521 0.259741 1 -7.31337 0.00391802 4
315 1 8.02286 18.72 0.891429 0 0 0 1 -7.02603 0 4
316 1 8.04306 20.5591 2.69376 5.76703 -4.81956 -6.68218 1 -7.30373 0.0629512 4
317 1 5.31773 19.6462 3.59319 -4.17977 3.50811 0.952629 1 -7.35004 0.019099 4
318 1 7.12376 17.837 3.57432 -1.6921 -3.43812 1.69642 1 -7.26655 0.0109309 4
319 1 10.6921 21.398 3.55621 -0.0452024 3.80363 -1.76001 1 -7.32963 0.0109344 4
322 1 8.91303 17.8206 1.78173 -9.21787 -2.19103 -3.9482 1 -7.38386 0.0655776 4
323 1 8.91429 19.6114 0 0 0 0 1 -3.33172 0 2
324 1 9.80644 18.75 2.64992 -0.308672 -6.41646 -0.171622 1 -7.3307 0.0257036 4
325 1 9.80572 20.5029 0.891429 0 0 0 1 -7.01884 0 4
326 1 10.6971 17.8286 0 0 0 0 1 -3.32595 0 2
327 1 10.6672 19.622 1.75762 -1.35799 -0.101198 -3.15566 1 -7.37659 0.00735245 4
328 1 12.496 17.8215 1.77561 -2.54215 4.19784 -6.13694 1 -7.30951 0.0384325 4
329 1 12.48 19.6114 0 0 0 0 1 -3.34204 0 2
330 1 11.5886 18.72 0.891429 0 0 0 1 -6.98813 0 4
331 1 11.5822 20.5154 2.66953 12.4625 -1.14163 -0.830306 1 -7.2995 0.0979121 4
332 1 8.89608 19.6539 3.58826 0.552478 1.74857 -0.85732 1 -7.3317 0.00255053 4
333 1 10.6716 17.84 3.5548 10.5339 2.41016 0.550777 1 -7.30835 0.0728708 4
334 1 12.4995 19.5852 3.53546 -2.4827 -6.0269 -2.18577 1 -7.26881 0.0294189 4
335 1 16.0508 21.3831 1.76161 0.0290455 0.103287 2.72137 1 -7.29036 0.00461675 4
337 1 13.3877 18.7597 2.67253 -3.98534 0.0787584 -2.27204 1 -7.36193 0.0131029 4
338 1 13.3714 20.5029 0.891429 0 0 0 1 -7.0437 0 4
339 1 14.2629 17.8286 0 0 0 0 1 -3.33593 0 2
340 1 14.2768 19.6286 1.76578 -3.73433 -2.25892 -3.88411 1 -7.36579 0.021246 4
341 1 16.0888 17.8329 1.76297 -4.58991 -1.99561 0.829426 1 -7.27979 0.0160198 4
342 1 16.0457 19.6114 0 0 0 0 1 -3.31214 0 2
343 1 15.1543 18.72 0.891429 0 0 0 1 -7.0191 0 4
344 1 15.1589 20.5201 2.71228 3.27753 -5.64711 -0.965561 1 -7.31713 0.0271156 4
345 1 16.9426 18.7578 2.68381 -8.86611 0.731974 -2.70399 1 -7.33654 0.053812 4
346 1 16.9371 20.5029 0.891429 0 0 0 1 -7.03208 0 4
347 1 14.2813 17.8453 3.55886 3.66484 4.32912 -2.56978 1 -7.31497 0.0241352 4
348 1 16.0991 19.6357 3.60067 -4.53359 -5.35027 0.907559 1 -7.39738 0.0311229 4
349 1 17.8492 21.344 3.60745 1.63482 -4.15064 2.34563 1 -7.38143 0.0158111 4
304 1 21.3508 17.829 3.53798 -5.4554 -6.21562 1.46212 1 -7.35594 0.0439017 4
305 1 21.3481 19.6419 1.74931 -2.31576 -1.88024 -0.0394609 1 -7.32984 0.00553934 4
351 1 17.8286 17.8286 0 0 0 0 1 -3.3184 0 2
352 1 17.8167 19.6237 1.78901 2.47419 -1.65204 -6.86826 1 -7.34322 0.0348707 4
353 1 19.6105 17.7805 1.77954 -1.40185 5.43227 2.60775 1 -7.31509 0.0238234 4
354 1 19.6114 19.6114 0 0 0 0 1 -3.33928 0 2
355 1 18.72 18.72 0.891429 0 0 0 1 -6.9613 0 4
356 1 18.7246 20.5034 2.70307 -3.96251 4.31602 -8.76267 1 -7.30889 0.0691602 4
357 1 20.4746 18.7384 2.67123 8.00047 -1.78878 -0.813724 1 -7.3317 0.0422437 4
358 1 20.5029 20.5029 0.891429 0 0 0 1 -7.04451 0 4
359 1 17.8287 17.8512 3.54967 -2.51701 -5.964 7.72658 1 -7.37252 0.0632414 4
360 1 19.5775 19.6256 3.55307 5.17703 0.539254 2.5329 1 -7.32478 0.0208563 4
361 1 0.895824 0.88625 4.52969 -0.339225 -1.53139 5.71535 1 -7.36333 0.021863 4
362 1 0.973373 2.65864 6.2954 -3.92375 0.729715 -0.89003 1 -7.36352 0.0104073 4
363 1 2.70005 0.910941 6.27587 1.00366 2.75635 5.35318 1 -7.30434 0.0231924 4
364 1 2.64804 2.68277 4.48401 -3.6157 -2.89196 -2.60431 1 -7.33607 0.0175644 4
365 1 3.58953 1.75815 5.33285 4.03695 -11.0523 10.6944 1 -7.32132 0.157362 4
366 1 1.82645 3.52734 5.40556 3.88951 -3.53905 7.67355 1 -7.27571 0.0538627 4
367 1 1.80519 1.78559 7.18509 3.5231 -1.23796 4.17746 1 -7.30691 0.0195417 4
368 1 0.889264 0.882658 8.06106 -3.73359 4.36145 -3.11262 1 -7.36075 0.0265467 4
369 1 2.72702 2.74273 8.05896 7.51279 -5.44286 6.20637 1 -7.26016 0.0775454 4
370 1 3.62118 3.59152 7.12696 -0.021848 1.64597 7.94296 1 -7.33067 0.0409558 4
411 1 0.0250709 1.82032 5.41972 -4.58848 0.767775 -2.0191 1 -7.31186 0.0160091 4
371 1 0.0329215 3.59916 7.14713 4.87785 6.176 -2.17489 1 -7.29761 0.041495 4
372 1 4.4701 0.947328 4.465 6.73821 -1.7189 -7.25659 1 -7.32951 0.0628751 4
373 1 4.45811 2.67855 6.22982 7.49783 -3.39143 -3.28941 1 -7.30407 0.048885 4
374 1 6.29852 0.899074 6.27237 1.49386 -3.97351 1.38853 1 -7.31314 0.0124164 4
375 1 6.23413 2.67722 4.46561 2.09689 -4.35909 -2.49555 1 -7.36579 0.0184402 4
376 1 7.1308 1.77082 5.32969 -5.96589 -1.1285 -4.36742 1 -7.33181 0.0348183 4
377 1 8.02901 0.886116 4.41548 11.6526 2.80207 -3.28189 1 -7.37288 0.0961056 4
378 1 8.04298 2.67266 6.2631 2.45393 -1.79634 4.4612 1 -7.26519 0.0181443 4
379 1 5.36181 3.59128 5.34969 -1.5411 0.358969 -2.27571 1 -7.36677 0.00478193 4
380 1 5.34653 1.80267 7.16076 2.11076 -6.62495 2.43562 1 -7.2977 0.0337837 4
381 1 4.46076 0.903796 8.02409 0.46049 -0.622623 1.09302 1 -7.34169 0.00111688 4
382 1 6.27765 2.73843 8.01507 -8.89554 2.51036 1.32649 1 -7.32966 0.0542706 4
383 1 8.10535 0.896833 8.06636 -3.99135 3.42373 2.57502 1 -7.30279 0.021339 4
384 1 7.14001 3.55491 7.14612 -7.98025 3.01328 -4.80565 1 -7.36552 0.0596649 4
665 1 7.17573 0.0101646 7.15271 5.59937 -0.602327 -2.81532 1 -7.3568 0.0246741 4
385 1 5.34338 0.0264144 5.40897 -1.63232 -4.78107 -9.11397 1 -7.27115 0.0675877 4
386 1 9.81125 0.884772 6.31864 0.447622 3.72085 1.24769 1 -7.3268 0.00971097 4
387 1 9.83152 2.68782 4.48179 -5.08524 -3.17278 -3.67019 1 -7.36189 0.0307457 4
388 1 10.6781 1.77157 5.40294 -4.82526 -4.42997 -0.69553 1 -7.35148 0.027008 4
389 1 11.5831 0.878444 4.52609 -1.11875 -4.623 4.73363 1 -7.32125 0.0280285 4
390 1 11.5834 2.65458 6.27418 -2.3845 2.9888 1.5196 1 -7.31339 0.0105364 4
391 1 8.97631 3.60503 5.34096 0.87584 -3.35799 -2.07832 1 -7.28804 0.0101845 4
392 1 12.4662 3.57795 5.36248 10.7394 0.311883 -0.382999 1 -7.40135 0.0719393 4
393 1 8.96422 1.76824 7.18304 2.63882 4.93823 -1.51416 1 -7.33137 0.0209397 4
394 1 9.82903 2.69776 8.07457 2.68042 5.10715 10.2796 1 -7.31567 0.0864782 4
395 1 12.4696 1.74358 7.16514 1.0618 8.29337 -6.24771 1 -7.38044 0.0678079 4
396 1 11.5774 0.872551 8.03418 -2.73999 -1.82822 -6.68505 1 -7.2941 0.0345694 4
397 1 10.6907 3.57777 7.13405 3.37631 -5.59163 5.76468 1 -7.34754 0.0472405 4
679 1 8.92342 0.0292916 5.33968 -0.365841 -4.42176 -0.159863 1 -7.27028 0.0122689 4
398 1 13.3668 0.838952 6.26715 -0.776717 -0.738811 0.550179 1 -7.34732 0.000903656 4
399 1 13.3627 2.69654 4.49347 -0.160015 3.30138 -1.77617 1 -7.30106 0.00876343 4
400 1 14.2553 1.76223 5.40482 0.176455 -3.3113 -6.35046 1 -7.31911 0.0319455 4
401 1 15.19 0.885754 4.49394 5.5128 5.56378 1.57552 1 -7.29914 0.0397288 4
402 1 15.0964 2.69232 6.27693 -8.16637 1.44891 4.33361 1 -7.38955 0.0545052 4
403 1 16.9443 0.928841 6.29403 -3.46274 -5.68967 3.92505 1 -7.36048 0.0372018 4
404 1 16.9421 2.7104 4.50557 2.08491 5.44138 -4.00168 1 -7.31033 0.0311019 4
405 1 16.0293 3.55483 5.40988 -0.187056 0.491744 -1.45413 1 -7.38213 0.0014884 4
406 1 13.3435 2.65203 8.05186 0.754647 -5.65296 7.53923 1 -7.32574 0.0556234 4
407 1 16.0277 1.8234 7.18606 2.90271 -12.054 -0.0284715 1 -7.28352 0.0956833 4
408 1 15.1309 0.893726 8.02656 0.558874 -1.80214 -2.66582 1 -7.39296 0.00663919 4
409 1 16.9646 2.67462 8.09545 4.52154 11.4862 0.0346829 1 -7.39988 0.0948444 4
410 1 14.2514 3.58486 7.13069 9.5625 -0.371905 5.901 1 -7.3469 0.0786757 4
694 1 16.0799 0.0104688 5.40606 5.02337 -1.41783 4.19152 1 -7.32332 0.027893 4
412 1 17.8584 1.81624 5.40824 -1.90944 3.89192 -9.73049 1 -7.34502 0.0706301 4
413 1 18.7148 0.89405 4.48499 1.21385 3.11217 -6.21947 1 -7.34346 0.0310223 4
414 1 18.7464 2.72665 6.27301 -1.00458 -4.16463 3.54113 1 -7.3289 0.0192286 4
415 1 20.5436 0.886915 6.30069 2.13083 5.22461 4.30633 1 -7.33601 0.0313588 4
416 1 20.4999 2.67811 4.52553 5.66377 3.07119 -2.68244 1 -7.31585 0.0303159 4
417 1 19.618 3.59732 5.34329 -0.522475 -1.89185 0.480099 1 -7.39355 0.00254111 4
418 1 19.6331 1.79755 7.20489 3.081 -7.78301 -0.473779 1 -7.28718 0.0437518 4
419 1 18.7178 0.874149 8.08921 -0.289216 2.39819 1.81282 1 -7.29935 0.00567732 4
420 1 20.5407 2.71006 8.08651 0.177371 4.5598 -0.976036 1 -7.25787 0.0135539 4
421 1 17.8314 3.57358 7.19159 7.1248 -1.87441 3.84848 1 -7.32252 0.0430016 4
709 1 17.7409 0.0533095 7.14955 4.72222 -0.441498 5.60339 1 -7.18497 0.0335439 4
422 1 19.6489 0.00935574 5.39756 11.9262 -5.30856 3.207 1 -7.30353 0.112472 4
423 1 0.941365 4.50354 4.46677 0.323329 -2.42421 5.9309 1 -7.28324 0.0256171 4
424 1 0.887358 6.28201 6.30104 0.0920198 -0.810595 0.651171 1 -7.3236 0.000678168 4
425 1 2.72995 4.5095 6.24411 2.63648 -0.878826 -1.61064 1 -7.26208 0.00642189 4
426 1 2.67107 6.26521 4.52974 3.79439 -9.90275 -1.79836 1 -7.37094 0.0720122 4
427 1 3.56639 5.3611 5.36926 3.99761 1.51241 4.02304 1 -7.41121 0.0214445 4
428 1 1.77941 7.13026 5.34447 -3.73629 0.411822 4.20965 1 -7.24402 0.0198246 4
429 1 0.911547 8.05568 4.46313 1.50028 -3.32971 -7.72047 1 -7.30919 0.0454019 4
430 1 2.71849 8.07077 6.24829 -0.336888 0.508588 4.93175 1 -7.23324 0.0153704 4
431 1 1.80482 5.38214 7.18492 -0.651489 -0.432331 3.63336 1 -7.30974 0.00859734 4
432 1 0.914617 4.47058 8.09006 -13.6157 -7.33412 3.04665 1 -7.31478 0.154648 4