ITEM: TIMESTEP
49126025
ITEM: NUMBER OF ATOMS
3060
ITEM: BOX BOUNDS pp pp mm
0.0000000000000000e+00 2.1394294200000001e+01
0.0000000000000000e+00 2.1394294200000001e+01
-5.3491084073550004e-03 5.3485735499999997e+01
ITEM: ATOMS id type x y z vx vy vz c_clusts c_atom_pe c_atom_ke c_atom_coord
1 1 0 0 0 0 0 0 1 -3.33601 0 2
2 1 1.78286 1.78286 0 0 0 0 1 -3.32288 0 2
3 1 0.891429 0.891429 0.891429 0 0 0 1 -7.00797 0 4
4 1 0.891209 2.64155 2.69219 2.92968 2.34441 -6.94567 1 -7.33912 0.0387906 4
5 1 2.70357 0.882165 2.70208 7.5276 4.25816 8.24588 1 -7.37192 0.088877 4
6 1 2.67429 2.67429 0.891429 0 0 0 1 -7.01749 0 4
7 1 3.56572 0 0 0 0 0 1 -3.32619 0 2
8 1 3.554 1.7485 1.78069 3.4567 3.57767 9.51739 1 -7.34267 0.0717839 4
9 1 0 3.56572 0 0 0 0 1 -3.33524 0 2
10 1 1.79499 3.55632 1.79545 4.41603 2.27042 5.42637 1 -7.31979 0.0336742 4
11 1 3.56572 3.56572 0 0 0 0 1 -3.33611 0 2
12 1 1.79332 1.81982 3.56064 -7.21438 -6.71535 -0.346593 1 -7.36367 0.0605393 4
13 1 3.61575 3.50523 3.61682 -4.71048 5.04685 -3.82016 1 -7.19964 0.0387479 4
292 1 1.79587 0.00968006 1.77892 5.33631 -0.933388 -3.27153 1 -7.30985 0.0249284 4
56 1 -0.0348529 3.53168 3.57562 -2.31876 -9.17801 -0.716039 1 -7.37006 0.0560963 4
55 1 -0.00675812 1.78615 1.78445 2.42476 -8.48703 3.25817 1 -7.35119 0.0551002 4
291 1 3.55736 0.00457092 3.57335 2.81126 9.2207 -0.301845 1 -7.33465 0.0578954 4
350 1 0.0227838 0.0338544 3.54773 -3.96844 -5.55963 6.09982 1 -7.33356 0.0522003 4
14 1 5.34857 1.78286 0 0 0 0 1 -3.33547 0 2
15 1 4.45714 0.891429 0.891429 0 0 0 1 -7.03626 0 4
16 1 4.46728 2.63404 2.67263 2.56026 7.36108 -2.86273 1 -7.34354 0.0429074 4
17 1 6.27296 0.857604 2.65771 -5.88882 -4.13021 1.55582 1 -7.22815 0.0337089 4
18 1 6.24 2.67429 0.891429 0 0 0 1 -7.03777 0 4
19 1 7.13143 0 0 0 0 0 1 -3.3338 0 2
20 1 7.15501 1.7666 1.74996 -4.38882 -1.50078 2.95033 1 -7.3721 0.0188088 4
21 1 8.02286 0.891429 0.891429 0 0 0 1 -7.00383 0 4
22 1 8.07798 2.64589 2.66816 -4.46116 -4.98504 4.87787 1 -7.29291 0.042665 4
23 1 5.34982 3.53451 1.76465 2.0088 3.36656 -7.52112 1 -7.37822 0.044775 4
24 1 7.13143 3.56572 0 0 0 0 1 -3.33297 0 2
25 1 5.32371 1.76022 3.60357 -3.23678 5.56921 -8.37313 1 -7.27092 0.0694642 4
26 1 7.1474 3.55619 3.58114 7.30526 5.78577 6.08601 1 -7.30375 0.077107 4
306 1 7.10044 -0.0458955 3.61758 -0.619852 6.0769 -3.87466 1 -7.28286 0.032569 4
28 1 8.91429 1.78286 0 0 0 0 1 -3.32854 0 2
29 1 9.75142 0.88694 2.71465 0.315015 9.97273 -1.187 1 -7.28121 0.0628423 4
30 1 9.80572 2.67429 0.891429 0 0 0 1 -6.99653 0 4
31 1 10.6971 0 0 0 0 0 1 -3.33033 0 2
32 1 10.7007 1.79064 1.78005 4.93191 0.155417 5.28229 1 -7.32304 0.0325221 4
33 1 12.48 1.78286 0 0 0 0 1 -3.33837 0 2
34 1 11.5886 0.891429 0.891429 0 0 0 1 -7.02132 0 4
35 1 11.6091 2.65849 2.65834 4.11297 -3.67774 0.706199 1 -7.35835 0.0192585 4
36 1 8.89717 3.57179 1.77197 -2.28582 7.28667 -1.59096 1 -7.35647 0.0378757 4
37 1 10.6971 3.56572 0 0 0 0 1 -3.32373 0 2
38 1 12.4895 3.56039 1.77609 -1.39587 -4.64007 -8.11635 1 -7.33029 0.0556162 4
39 1 8.92697 1.77308 3.58506 3.99463 5.66414 -6.42078 1 -7.4141 0.0555614 4
40 1 12.513 1.77221 3.55375 -7.40937 2.52546 9.52835 1 -7.29932 0.09465 4
41 1 10.7101 3.54957 3.57614 -6.04268 -6.74754 -1.78682 1 -7.34699 0.0530531 4
319 1 10.6622 -0.0240986 3.57332 4.29494 8.64868 0.940409 1 -7.28839 0.0585893 4
42 1 13.3574 0.8529 2.6284 3.93247 -4.03465 -2.50029 1 -7.33195 0.0236486 4
43 1 13.3714 2.67429 0.891429 0 0 0 1 -7.02431 0 4
44 1 14.2629 0 0 0 0 0 1 -3.32894 0 2
45 1 14.2635 1.7762 1.77969 -4.38584 2.36729 -3.87568 1 -7.3992 0.0248103 4
46 1 16.0457 1.78286 0 0 0 0 1 -3.3366 0 2
47 1 15.1543 0.891429 0.891429 0 0 0 1 -7.0177 0 4
48 1 15.1373 2.63462 2.63634 8.15614 -1.98065 2.59944 1 -7.32401 0.0480529 4
49 1 16.967 0.880624 2.65939 6.04026 -7.2853 3.82888 1 -7.31671 0.0648696 4
50 1 16.9371 2.67429 0.891429 0 0 0 1 -6.99172 0 4
51 1 14.2629 3.56572 0 0 0 0 1 -3.33293 0 2
52 1 16.0342 3.56459 1.76982 -6.86268 5.46776 -1.92617 1 -7.3595 0.0502317 4
53 1 16.058 1.72761 3.57502 7.12407 0.315888 -1.67667 1 -7.30964 0.0334015 4
54 1 14.2868 3.54481 3.56813 2.94485 4.92611 1.21199 1 -7.30258 0.0214162 4
336 1 14.2046 -0.0161191 3.58214 -0.866095 -1.51862 3.88028 1 -7.27482 0.011274 4
57 1 17.8286 0 0 0 0 0 1 -3.34339 0 2
58 1 17.8735 1.78761 1.80001 4.56151 -9.26994 -3.77871 1 -7.36804 0.0753247 4
59 1 19.6114 1.78286 0 0 0 0 1 -3.31708 0 2
60 1 18.72 0.891429 0.891429 0 0 0 1 -7.00868 0 4
61 1 18.76 2.65023 2.68116 -9.83631 0.0910976 -0.126754 1 -7.36728 0.0602368 4
62 1 20.5034 0.885969 2.6923 -0.159862 -4.989 0.195419 1 -7.32778 0.015532 4
63 1 20.5029 2.67429 0.891429 0 0 0 1 -7.03554 0 4
64 1 17.8286 3.56572 0 0 0 0 1 -3.32355 0 2
65 1 19.6097 3.55879 1.75409 -4.53643 -1.58962 0.735542 1 -7.33173 0.0147186 4
66 1 19.6337 1.75339 3.5825 2.07762 -2.60989 -1.25941 1 -7.34451 0.00791362 4
67 1 17.8615 3.55041 3.57089 -3.48482 -1.52245 2.07507 1 -7.31909 0.0116816 4
68 1 19.6238 0.0193087 1.76133 -2.20862 2.27498 -2.1201 1 -7.35323 0.00905528 4
349 1 17.8195 -0.0115913 3.58052 -1.89324 -1.12886 0.119495 1 -7.37965 0.00303307 4
69 1 1.78286 5.34857 0 0 0 0 1 -3.32896 0 2
70 1 0.891429 4.45714 0.891429 0 0 0 1 -7.01354 0 4
71 1 0.904227 6.23949 2.70348 -7.51268 10.8379 3.00897 1 -7.352 0.113876 4
72 1 2.71402 4.45301 2.69556 0.116032 4.75077 -8.80595 1 -7.28616 0.0623223 4
73 1 2.67429 6.24 0.891429 0 0 0 1 -6.97811 0 4
74 1 3.59834 5.30748 1.78241 0.163669 4.49926 -0.0536372 1 -7.33733 0.0126185 4
75 1 0 7.13143 0 0 0 0 1 -3.3418 0 2
76 1 1.78691 7.10851 1.8093 6.79166 6.94873 9.84356 1 -7.35514 0.119075 4
77 1 0.891429 8.02286 0.891429 0 0 0 1 -7.00337 0 4
78 1 2.67211 8.02327 2.66426 -2.91135 -7.13453 4.3504 1 -7.34819 0.0487381 4
79 1 3.56572 7.13143 0 0 0 0 1 -3.33522 0 2
80 1 1.80344 5.34145 3.58003 4.02119 1.56716 2.62622 1 -7.36298 0.0158862 4
81 1 3.54476 7.11736 3.58799 1.09576 -6.20296 -2.21231 1 -7.33544 0.0277426 4
128 1 0.000950586 5.3501 1.78145 7.2916 3.74205 7.64508 1 -7.34687 0.0781877 4
82 1 -0.0529394 7.11813 3.57847 0.675995 1.18796 -2.14981 1 -7.31227 0.00403949 4
83 1 5.34857 5.34857 0 0 0 0 1 -3.34453 0 2
84 1 4.45714 4.45714 0.891429 0 0 0 1 -7.04649 0 4
85 1 4.44002 6.26038 2.67352 0.218391 10.2186 -0.217355 1 -7.31689 0.0650525 4
86 1 6.25102 4.44872 2.6759 -1.41875 -7.50095 1.47628 1 -7.35237 0.0376297 4
87 1 6.24 6.24 0.891429 0 0 0 1 -7.03135 0 4
88 1 7.14999 5.33533 1.78642 -1.3646 -9.27301 10.8854 1 -7.34865 0.128434 4
89 1 8.02286 4.45714 0.891429 0 0 0 1 -7.05225 0 4
90 1 8.06366 6.22515 2.6985 -5.76032 -0.93611 2.67582 1 -7.25387 0.0256549 4
91 1 5.36468 7.13545 1.77641 -4.99328 -2.2943 -0.750284 1 -7.37788 0.0191456 4
92 1 4.45714 8.02286 0.891429 0 0 0 1 -7.00217 0 4
93 1 6.20976 8.00918 2.64689 9.0269 -0.242228 3.47815 1 -7.39013 0.0582847 4
94 1 7.13143 7.13143 0 0 0 0 1 -3.31336 0 2
95 1 8.02286 8.02286 0.891429 0 0 0 1 -6.95237 0 4
96 1 5.3637 5.35752 3.54409 -8.22252 -5.66643 5.48836 1 -7.34558 0.0808161 4
97 1 7.10542 7.17385 3.58028 -3.96094 3.31298 -4.04075 1 -7.27356 0.0267597 4
98 1 8.91429 5.34857 0 0 0 0 1 -3.34392 0 2
99 1 9.80511 4.44276 2.69006 2.60973 1.7466 1.27346 1 -7.32886 0.0071473 4
100 1 9.80572 6.24 0.891429 0 0 0 1 -6.98924 0 4
101 1 10.6598 5.35714 1.79076 -1.38382 4.22686 3.14697 1 -7.34084 0.0184766 4
102 1 12.48 5.34857 0 0 0 0 1 -3.33655 0 2
103 1 11.5886 4.45714 0.891429 0 0 0 1 -6.98651 0 4
104 1 11.5576 6.21254 2.72056 -4.30574 1.60115 -1.3204 1 -7.23419 0.0142203 4
105 1 8.91237 7.1489 1.83683 0.221682 4.30103 0.925446 1 -7.30475 0.0120778 4
106 1 9.84113 8.08065 2.68117 -4.82343 -1.11747 11.2316 1 -7.32745 0.0937769 4
107 1 10.6971 7.13143 0 0 0 0 1 -3.37176 0 2
108 1 12.4754 7.14967 1.78602 -4.68552 6.42777 -4.42941 1 -7.28521 0.0515929 4
109 1 11.5886 8.02286 0.891429 0 0 0 1 -7.02015 0 4
110 1 8.95123 5.32751 3.62227 1.70674 8.90409 3.85851 1 -7.36061 0.0604275 4
111 1 12.4921 5.29717 3.60327 1.92379 -2.25546 -1.14091 1 -7.34404 0.00628011 4
112 1 10.718 7.17576 3.5751 -0.0463348 -2.41675 -0.561765 1 -7.30641 0.00383316 4
113 1 13.3694 4.50219 2.69322 -0.832953 7.05469 -3.63964 1 -7.28857 0.0396544 4
114 1 13.3714 6.24 0.891429 0 0 0 1 -6.99984 0 4
115 1 14.2834 5.35066 1.75737 7.40823 -5.09371 11.9561 1 -7.38408 0.139285 4
116 1 16.0457 5.34857 0 0 0 0 1 -3.3389 0 2
117 1 15.1543 4.45714 0.891429 0 0 0 1 -7.0712 0 4
118 1 15.1198 6.24687 2.6803 -1.79291 -3.49855 -1.59864 1 -7.32143 0.0112099 4
119 1 16.9322 4.44736 2.71539 -5.2374 4.99207 -2.19013 1 -7.30802 0.0355703 4
120 1 16.9371 6.24 0.891429 0 0 0 1 -7.02987 0 4
121 1 13.3784 8.03348 2.69508 -2.03084 6.99753 0.46866 1 -7.33242 0.0331811 4
122 1 14.2629 7.13143 0 0 0 0 1 -3.32132 0 2
123 1 16.0771 7.14851 1.75193 2.7212 -4.50528 -4.58589 1 -7.29748 0.0303326 4
124 1 15.1543 8.02286 0.891429 0 0 0 1 -7.00845 0 4
125 1 16.9681 7.9885 2.61487 -0.375871 4.53024 -1.24644 1 -7.31894 0.013829 4
126 1 16.0845 5.4014 3.53836 6.19212 -3.1707 2.06984 1 -7.28779 0.0327894 4
127 1 14.2762 7.13837 3.58165 -5.56749 7.6799 -4.14805 1 -7.41006 0.0667142 4
129 1 17.8378 5.35551 1.79055 -0.384434 -0.315135 8.01191 1 -7.28496 0.0401077 4
130 1 19.6114 5.34857 0 0 0 0 1 -3.31596 0 2
131 1 18.72 4.45714 0.891429 0 0 0 1 -7.04266 0 4
132 1 18.7356 6.21561 2.71202 -0.947466 -0.221994 4.04918 1 -7.33183 0.0107946 4
133 1 20.5103 4.44946 2.68298 2.1516 -1.80211 4.52034 1 -7.38779 0.0176212 4
134 1 20.5029 6.24 0.891429 0 0 0 1 -7.0033 0 4
135 1 17.8286 7.13143 0 0 0 0 1 -3.30971 0 2
136 1 19.5607 7.11711 1.7808 -1.79438 -4.98645 5.44984 1 -7.32899 0.0359671 4
137 1 18.72 8.02286 0.891429 0 0 0 1 -7.02005 0 4
138 1 20.4824 7.9768 2.69717 3.59471 -5.35693 2.189 1 -7.28308 0.028887 4
139 1 19.6182 5.32615 3.54576 -8.04715 -2.42195 -3.63345 1 -7.39659 0.0521746 4
140 1 17.8326 7.11851 3.57231 -7.17846 -10.851 -3.00524 1 -7.31151 0.110983 4
141 1 1.78286 8.91429 0 0 0 0 1 -3.3268 0 2
142 1 0.915415 9.78786 2.71985 -0.254548 1.493 0.275306 1 -7.28665 0.00147493 4
143 1 2.67429 9.80572 0.891429 0 0 0 1 -7.03946 0 4
144 1 3.54667 8.92217 1.76241 3.34891 -4.36435 3.02049 1 -7.41618 0.024515 4
145 1 0 10.6971 0 0 0 0 1 -3.33333 0 2
146 1 1.7643 10.6869 1.73226 0.179012 -4.13021 2.0665 1 -7.31846 0.0132957 4
147 1 1.78286 12.48 0 0 0 0 1 -3.3125 0 2
148 1 0.891429 11.5886 0.891429 0 0 0 1 -7.02975 0 4
149 1 2.67085 11.5911 2.62978 -3.9438 2.942 -0.325694 1 -7.3242 0.0151343 4
150 1 3.56572 10.6971 0 0 0 0 1 -3.3155 0 2
151 1 3.51506 12.4941 1.76236 2.44588 9.35671 0.72212 1 -7.35103 0.0585403 4
152 1 1.80054 8.91175 3.5395 -0.608024 -4.87753 -7.2433 1 -7.38224 0.0476936 4
153 1 1.79018 12.4938 3.55244 -10.6926 -0.151993 3.70839 1 -7.34464 0.0797366 4
154 1 3.54917 10.7169 3.53327 -2.07201 1.50255 10.1916 1 -7.39291 0.0687279 4
205 1 0.021523 8.88733 1.77539 7.79864 -5.71945 -1.6322 1 -7.27718 0.0598743 4
204 1 0.0274687 12.5029 1.75508 12.8013 -1.76385 -1.01066 1 -7.3735 0.104571 4
155 1 5.34857 8.91429 0 0 0 0 1 -3.30987 0 2
156 1 4.41703 9.77369 2.65924 -1.5204 -2.40445 2.47726 1 -7.33345 0.00885698 4
157 1 6.24 9.80572 0.891429 0 0 0 1 -7.02815 0 4
158 1 7.04955 8.89149 1.77861 8.50105 3.04769 -1.25197 1 -7.30806 0.0517384 4
159 1 7.99438 9.78391 2.63612 -0.0928732 2.10993 6.87871 1 -7.27501 0.0322274 4
160 1 5.3636 10.6675 1.78232 -5.466 -1.38344 -2.77781 1 -7.31331 0.0245904 4
161 1 5.34857 12.48 0 0 0 0 1 -3.34804 0 2
162 1 4.45714 11.5886 0.891429 0 0 0 1 -6.93789 0 4
163 1 6.22046 11.6063 2.67375 -4.4137 -2.30797 1.58762 1 -7.34784 0.0170097 4
164 1 7.13143 10.6971 0 0 0 0 1 -3.36356 0 2
165 1 7.11461 12.5014 1.79088 0.81599 3.02016 -6.56278 1 -7.37142 0.0328998 4
166 1 8.02286 11.5886 0.891429 0 0 0 1 -7.01878 0 4
167 1 5.30574 8.93452 3.55631 0.578293 0.323261 -8.54568 1 -7.34237 0.0457281 4
168 1 5.31478 12.4824 3.54537 3.51362 1.10525 -1.30956 1 -7.3397 0.00951193 4
169 1 7.10257 10.7291 3.55096 1.43117 -0.842047 -5.96894 1 -7.31722 0.0238922 4
170 1 8.91429 8.91429 0 0 0 0 1 -3.36409 0 2
171 1 9.80572 9.80572 0.891429 0 0 0 1 -6.90207 0 4
172 1 10.7724 8.9486 1.80792 8.4025 -4.16837 4.77275 1 -7.34119 0.0689377 4
173 1 12.48 8.91429 0 0 0 0 1 -3.32094 0 2
174 1 11.6439 9.83406 2.69395 -0.192349 1.47138 -1.68782 1 -7.40852 0.00314369 4
175 1 8.86916 10.7388 1.78173 -4.07851 -1.94089 0.444696 1 -7.28377 0.0128214 4
176 1 8.91429 12.48 0 0 0 0 1 -3.33719 0 2
177 1 9.84029 11.6076 2.67381 -0.832134 0.68419 0.357581 1 -7.30711 0.000801951 4
178 1 10.6971 10.6971 0 0 0 0 1 -3.32806 0 2
179 1 10.7395 12.5077 1.76256 -4.4027 6.89628 1.45331 1 -7.33627 0.0429813 4
180 1 12.4901 10.7224 1.79004 -3.98837 0.753386 0.476226 1 -7.37953 0.0103954 4
181 1 12.48 12.48 0 0 0 0 1 -3.32313 0 2
182 1 11.5886 11.5886 0.891429 0 0 0 1 -7.04329 0 4
183 1 8.91041 8.93964 3.55632 2.22695 1.98053 -2.67717 1 -7.3516 0.00998935 4
184 1 12.4926 8.96081 3.61313 -1.27602 0.618452 -5.36943 1 -7.3682 0.0191965 4
185 1 8.93032 12.5055 3.55358 3.21889 -3.99515 1.70501 1 -7.33859 0.0181932 4
186 1 10.7285 10.7028 3.54785 -0.573892 0.968488 2.27342 1 -7.39704 0.00400578 4
187 1 12.5049 12.513 3.56108 -2.91578 -9.44199 -7.00372 1 -7.32112 0.0913131 4
188 1 13.3714 9.80572 0.891429 0 0 0 1 -7.00268 0 4
189 1 14.2476 8.91308 1.77158 -1.25957 2.06288 -3.34215 1 -7.34211 0.0105887 4
190 1 16.0457 8.91429 0 0 0 0 1 -3.33582 0 2
191 1 15.1878 9.85476 2.62622 0.61477 5.95287 -0.553644 1 -7.24543 0.0224827 4
192 1 16.9371 9.80572 0.891429 0 0 0 1 -7.0175 0 4
193 1 13.3963 11.6179 2.65647 1.70543 1.96692 1.62619 1 -7.32673 0.00586436 4
194 1 14.2629 10.6971 0 0 0 0 1 -3.34836 0 2
195 1 14.2487 12.5155 1.79157 4.61567 0.63624 5.60862 1 -7.37631 0.0330918 4
196 1 16.0869 10.7554 1.77152 -5.5796 0.720846 -2.89725 1 -7.34246 0.0249254 4
197 1 16.0457 12.48 0 0 0 0 1 -3.29993 0 2
198 1 15.1543 11.5886 0.891429 0 0 0 1 -6.98002 0 4
199 1 16.9561 11.5757 2.69256 -3.16158 6.64066 -7.13584 1 -7.32999 0.0653636 4
200 1 16.0269 8.93385 3.5455 2.19218 10.231 -8.31663 1 -7.24972 0.111194 4
201 1 14.281 10.7054 3.59046 -9.1578 1.87326 -1.53368 1 -7.36701 0.0558482 4
202 1 16.026 12.4733 3.60195 -5.93759 -3.68866 1.89873 1 -7.34005 0.0326565 4
203 1 21.412 10.6838 3.59299 -10.076 -3.36662 2.78827 1 -7.3852 0.0750863 4
206 1 17.8276 8.91809 1.7806 -2.80974 -6.73592 -1.23797 1 -7.30927 0.0341088 4
207 1 19.6114 8.91429 0 0 0 0 1 -3.34186 0 2
208 1 18.7661 9.80462 2.70821 -2.2027 -4.98694 -2.63599 1 -7.30024 0.0228243 4
209 1 20.5029 9.80572 0.891429 0 0 0 1 -6.95927 0 4
210 1 17.8286 10.6971 0 0 0 0 1 -3.30791 0 2
211 1 17.8317 12.4327 1.76563 1.3919 -2.39923 4.24085 1 -7.30421 0.0159829 4
212 1 19.5888 10.6989 1.83008 -5.21339 -1.14492 0.0878744 1 -7.3521 0.0177379 4
213 1 19.6114 12.48 0 0 0 0 1 -3.36263 0 2
214 1 18.72 11.5886 0.891429 0 0 0 1 -7.03753 0 4
215 1 20.5197 11.5754 2.67161 -0.795135 -10.317 -3.32045 1 -7.29709 0.0735077 4
216 1 19.6416 8.87062 3.61549 -4.90198 -6.99283 -3.51163 1 -7.31926 0.0530685 4
217 1 17.7922 10.6682 3.61343 2.08202 -1.38041 -2.0032 1 -7.29316 0.00638183 4
218 1 19.6098 12.4697 3.56871 3.25315 0.392225 -4.04463 1 -7.28859 0.0168652 4
219 1 0.910695 13.3526 2.63446 -2.1118 -1.61044 -3.7958 1 -7.37396 0.0133581 4
220 1 2.67429 13.3714 0.891429 0 0 0 1 -7.01549 0 4
221 1 0 14.2629 0 0 0 0 1 -3.31059 0 2
222 1 1.78312 14.256 1.76239 4.47322 -4.05146 -1.2974 1 -7.39328 0.0237189 4
223 1 1.78286 16.0457 0 0 0 0 1 -3.32258 0 2
224 1 0.891429 15.1543 0.891429 0 0 0 1 -7.03569 0 4
225 1 0.883172 16.925 2.67816 2.03969 0.194185 -2.25222 1 -7.35235 0.00577022 4
226 1 2.68128 15.1088 2.65657 -3.2152 2.10071 -5.44506 1 -7.32418 0.0276352 4
227 1 2.67429 16.9371 0.891429 0 0 0 1 -6.97619 0 4
228 1 3.56572 14.2629 0 0 0 0 1 -3.35212 0 2
229 1 3.58905 16.0166 1.80528 2.92543 -10.8757 5.33744 1 -7.32619 0.0966795 4
230 1 1.79286 16.042 3.57995 2.36954 -3.32016 0.17184 1 -7.3387 0.0103744 4
231 1 3.58592 14.2833 3.55569 4.25044 9.08457 5.2556 1 -7.31675 0.0798056 4
233 1 0.00165081 16.0259 1.74474 5.61077 3.34795 0.886365 1 -7.34853 0.0270601 4
232 1 0.0246756 14.251 3.49992 4.76432 3.38863 9.91762 1 -7.28512 0.0824968 4
234 1 4.45964 13.385 2.63253 -9.27209 0.616564 -1.55502 1 -7.30747 0.0552527 4
235 1 6.24 13.3714 0.891429 0 0 0 1 -7.02169 0 4
236 1 7.98563 13.371 2.65342 2.21524 -1.48159 0.527084 1 -7.35068 0.00459362 4
237 1 5.3847 14.2685 1.78756 -1.63859 1.51555 2.20862 1 -7.32322 0.00613705 4
238 1 5.34857 16.0457 0 0 0 0 1 -3.3301 0 2
239 1 4.45714 15.1543 0.891429 0 0 0 1 -6.9723 0 4
240 1 4.4598 16.9214 2.64351 -3.58998 2.145 -1.00666 1 -7.33609 0.0115164 4
241 1 6.25257 15.1964 2.66935 9.91601 -2.7539 -2.68953 1 -7.32894 0.0704242 4
242 1 6.24 16.9371 0.891429 0 0 0 1 -6.99338 0 4
243 1 7.13143 14.2629 0 0 0 0 1 -3.33969 0 2
244 1 7.16505 16.0617 1.78069 -3.33229 1.47376 -4.0419 1 -7.39573 0.018432 4
245 1 8.02286 15.1543 0.891429 0 0 0 1 -7.0355 0 4
246 1 8.04594 16.9252 2.63798 -7.8683 -4.24212 -2.92763 1 -7.32879 0.0550702 4
247 1 5.31347 16.0539 3.54025 -3.39601 -5.04506 -5.07067 1 -7.36966 0.0390244 4
248 1 7.12397 14.2644 3.58572 -5.0766 0.889636 -0.423053 1 -7.31084 0.0166451 4
249 1 9.80572 13.3714 0.891429 0 0 0 1 -6.96681 0 4
250 1 11.579 13.4234 2.69563 -4.63539 12.1116 -3.65652 1 -7.26691 0.113 4
251 1 8.86607 14.2837 1.7801 -2.61451 -4.17528 1.16563 1 -7.36644 0.0159511 4
252 1 8.91429 16.0457 0 0 0 0 1 -3.33568 0 2
253 1 9.7837 15.1177 2.65912 -2.69261 -5.54826 -1.98569 1 -7.23395 0.0261271 4
254 1 9.80572 16.9371 0.891429 0 0 0 1 -7.01515 0 4
255 1 10.6971 14.2629 0 0 0 0 1 -3.32476 0 2
256 1 10.6919 16.06 1.78142 -9.40072 -0.691429 -2.14305 1 -7.36038 0.0581622 4
257 1 12.4695 14.3012 1.77241 -0.125521 1.38086 5.47583 1 -7.34965 0.0198599 4
258 1 12.48 16.0457 0 0 0 0 1 -3.32208 0 2
259 1 11.5886 15.1543 0.891429 0 0 0 1 -7.02267 0 4
260 1 11.5514 16.9478 2.66661 5.94694 0.178631 -5.57739 1 -7.29273 0.0413946 4
261 1 8.93309 16.0215 3.56707 2.18432 2.81534 2.98257 1 -7.27842 0.0134401 4
262 1 10.6878 14.2568 3.65742 -4.57924 2.76438 -1.65164 1 -7.2939 0.0195063 4
263 1 12.5126 16.025 3.5641 -4.95329 -5.57592 -6.94409 1 -7.33211 0.0646367 4
264 1 13.3714 13.3714 0.891429 0 0 0 1 -7.03363 0 4
265 1 15.1657 13.3373 2.69277 -1.08359 -3.89099 -7.61676 1 -7.33055 0.0462643 4
266 1 16.9371 13.3714 0.891429 0 0 0 1 -6.96762 0 4
267 1 13.3752 15.1506 2.64985 -0.0274406 -3.19687 -4.25161 1 -7.33334 0.0176127 4
268 1 13.3714 16.9371 0.891429 0 0 0 1 -7.04409 0 4
269 1 14.2629 14.2629 0 0 0 0 1 -3.32775 0 2
270 1 14.2694 16.0294 1.744 -6.58993 -0.471916 4.91282 1 -7.34876 0.0421916 4
271 1 16.0361 14.2822 1.82263 1.64156 -0.146179 -0.886403 1 -7.33891 0.00217961 4
272 1 16.0457 16.0457 0 0 0 0 1 -3.34414 0 2
273 1 15.1543 15.1543 0.891429 0 0 0 1 -7.03207 0 4
274 1 15.1474 16.9099 2.69907 -0.409977 2.39866 -0.676813 1 -7.23776 0.0039709 4
275 1 16.8931 15.1539 2.70701 2.76149 -4.12948 1.49965 1 -7.37645 0.0167603 4
276 1 16.9371 16.9371 0.891429 0 0 0 1 -7.04757 0 4
277 1 14.2624 14.2772 3.60486 -5.82453 -3.42159 2.09113 1 -7.3073 0.0311246 4
278 1 16.041 16.0321 3.62726 -4.337 3.92911 10.4991 1 -7.33872 0.0899276 4
279 1 18.7019 13.3693 2.69109 4.63363 7.47534 0.230261 1 -7.33248 0.0481785 4
280 1 20.5029 13.3714 0.891429 0 0 0 1 -7.0155 0 4
281 1 17.8286 14.2629 0 0 0 0 1 -3.33411 0 2
282 1 17.7939 16.059 1.77846 6.4824 6.64754 3.22445 1 -7.34071 0.0601316 4
283 1 19.6206 14.2637 1.79796 -0.27089 10.9788 -1.70753 1 -7.36836 0.0768838 4
284 1 19.6114 16.0457 0 0 0 0 1 -3.31825 0 2
285 1 18.72 15.1543 0.891429 0 0 0 1 -6.98516 0 4
286 1 18.7337 16.919 2.66082 -4.50835 -1.80046 -4.50205 1 -7.34798 0.0272843 4
287 1 20.5206 15.1123 2.62059 -2.73634 7.95592 -4.33046 1 -7.31343 0.0557302 4
288 1 20.5029 16.9371 0.891429 0 0 0 1 -7.0405 0 4
289 1 17.793 14.2358 3.57507 0.131465 -0.273841 0.825795 1 -7.30826 0.000481888 4
290 1 19.6233 16.056 3.58002 5.19041 -2.44771 -7.35191 1 -7.28143 0.05414 4
293 1 0 17.8286 0 0 0 0 1 -3.32198 0 2
294 1 1.75191 17.8243 1.77787 -1.0328 5.16645 -4.70753 1 -7.32137 0.0310713 4
295 1 1.78286 19.6114 0 0 0 0 1 -3.34337 0 2
296 1 0.891429 18.72 0.891429 0 0 0 1 -7.02622 0 4
297 1 0.855476 20.5135 2.66419 -5.65705 3.76255 1.50525 1 -7.31623 0.0301409 4
298 1 2.65714 18.7513 2.71233 -4.18364 -3.71311 -12.3367 1 -7.36421 0.114205 4
299 1 2.67429 20.5029 0.891429 0 0 0 1 -7.03546 0 4
300 1 3.56572 17.8286 0 0 0 0 1 -3.31721 0 2
301 1 3.51312 19.6198 1.76958 0.232294 7.76294 9.44302 1 -7.30726 0.0930451 4
302 1 1.7808 19.6031 3.5448 -0.789752 -3.90171 -8.64115 1 -7.31402 0.0563399 4
303 1 3.56003 17.8816 3.55691 3.09293 -6.4321 -11.8184 1 -7.32023 0.118642 4
305 1 -0.0432995 19.6024 1.75867 2.99917 -0.0862464 4.14183 1 -7.39063 0.016281 4
27 1 5.33261 21.3854 1.76682 -0.461459 0.849137 -3.20145 1 -7.36201 0.00696075 4
307 1 5.33681 17.824 1.73811 -0.367895 6.90171 -1.24296 1 -7.36685 0.0306943 4
308 1 5.34857 19.6114 0 0 0 0 1 -3.32763 0 2
309 1 4.45714 18.72 0.891429 0 0 0 1 -7.01308 0 4
310 1 4.48269 20.514 2.64164 -5.48355 -2.55891 7.11693 1 -7.33025 0.0543179 4
311 1 6.26581 18.6858 2.6628 -3.75968 1.94576 0.187819 1 -7.29018 0.0111766 4
312 1 6.24 20.5029 0.891429 0 0 0 1 -7.00389 0 4
313 1 7.13143 17.8286 0 0 0 0 1 -3.31964 0 2
314 1 7.13278 19.6027 1.79618 4.28567 3.37531 1.58657 1 -7.36068 0.02009 4
315 1 8.02286 18.72 0.891429 0 0 0 1 -6.99577 0 4
316 1 8.00771 20.4613 2.6623 -5.14051 3.44851 -2.00518 1 -7.28716 0.0263522 4
317 1 5.34047 19.6292 3.53229 -7.47181 0.0880279 3.57738 1 -7.28915 0.0427192 4
318 1 7.16952 17.8014 3.59461 8.43933 5.98257 -6.06512 1 -7.35292 0.0895043 4
320 1 8.91582 21.3801 1.77016 -3.23798 0.0104717 0.0702494 1 -7.35782 0.00652898 4
321 1 12.4569 21.3681 1.77673 -0.0857396 0.328472 -1.44129 1 -7.41797 0.0013647 4
322 1 8.91303 17.8206 1.78173 -9.21787 -2.19103 -3.9482 1 -7.38432 0.0655776 4
323 1 8.91429 19.6114 0 0 0 0 1 -3.33194 0 2
324 1 9.78605 18.7287 2.66567 -5.98677 8.32059 4.77494 1 -7.37273 0.079592 4
325 1 9.80572 20.5029 0.891429 0 0 0 1 -7.05512 0 4
326 1 10.6971 17.8286 0 0 0 0 1 -3.32595 0 2
327 1 10.6672 19.622 1.75762 -1.35799 -0.101198 -3.15566 1 -7.34932 0.00735245 4
328 1 12.496 17.8215 1.77561 -2.54215 4.19784 -6.13694 1 -7.3645 0.0384325 4
329 1 12.48 19.6114 0 0 0 0 1 -3.32245 0 2
330 1 11.5886 18.72 0.891429 0 0 0 1 -6.971 0 4
331 1 11.6065 20.4841 2.63717 -0.770804 -0.914009 0.66662 1 -7.32878 0.00116639 4
332 1 8.93695 19.6049 3.57911 6.22399 0.874711 -1.47375 1 -7.33593 0.0259397 4
333 1 10.6896 17.8572 3.5494 -12.0566 -2.38665 -5.09299 1 -7.40607 0.110167 4
334 1 12.4563 19.6238 3.58059 0.86048 1.24153 2.89872 1 -7.36517 0.00665024 4
335 1 16.0508 21.3831 1.76161 0.0290455 0.103287 2.72137 1 -7.36822 0.00461675 4
337 1 13.3743 18.7273 2.63916 -5.45254 -7.9523 -2.33446 1 -7.31147 0.0612585 4
338 1 13.3714 20.5029 0.891429 0 0 0 1 -7.01011 0 4
339 1 14.2629 17.8286 0 0 0 0 1 -3.33593 0 2
340 1 14.2768 19.6286 1.76578 -3.73433 -2.25892 -3.88411 1 -7.36504 0.021246 4
341 1 16.0888 17.8329 1.76297 -4.58991 -1.99561 0.829426 1 -7.30284 0.0160198 4
342 1 16.0457 19.6114 0 0 0 0 1 -3.31793 0 2
343 1 15.1543 18.72 0.891429 0 0 0 1 -7.00194 0 4
344 1 15.1796 20.4814 2.66252 1.51287 3.54441 1.76972 1 -7.31568 0.0111934 4
345 1 16.9419 18.7117 2.68091 -0.267112 -0.889 -3.28207 1 -7.34236 0.00724108 4
346 1 16.9371 20.5029 0.891429 0 0 0 1 -6.9821 0 4
347 1 14.2725 17.8379 3.56233 -5.82116 10.2383 6.88374 1 -7.36296 0.115831 4
348 1 16.056 19.6072 3.55663 -4.83088 0.264989 0.604021 1 -7.3787 0.0147966 4
304 1 21.3746 17.8066 3.57632 2.40321 4.23508 -1.08286 1 -7.28833 0.0154884 4
351 1 17.8286 17.8286 0 0 0 0 1 -3.32952 0 2
352 1 17.8612 19.6211 1.80242 -3.85017 1.14654 -5.79904 1 -7.34795 0.0309764 4
353 1 19.6105 17.7805 1.77954 -1.40185 5.43227 2.60775 1 -7.35991 0.0238234 4
354 1 19.6114 19.6114 0 0 0 0 1 -3.32746 0 2
355 1 18.72 18.72 0.891429 0 0 0 1 -6.98806 0 4
356 1 18.6998 20.5289 2.67894 -2.98793 -0.52846 -9.94785 1 -7.30211 0.0673258 4
357 1 20.4822 18.7342 2.64551 -3.64716 -0.962842 -8.33062 1 -7.30137 0.0520523 4
358 1 20.5029 20.5029 0.891429 0 0 0 1 -7.03215 0 4
359 1 17.8265 17.8062 3.59499 -3.30976 6.7737 -5.03873 1 -7.34847 0.0511798 4
360 1 19.6163 19.6304 3.59605 1.5638 4.46168 -3.75576 1 -7.35135 0.0226923 4
361 1 0.87601 0.938447 4.4414 -7.10862 0.622067 4.73877 1 -7.39085 0.0456708 4
362 1 0.869027 2.63514 6.2479 -3.66654 1.54107 -1.77181 1 -7.32021 0.0117998 4
363 1 2.64714 0.880736 6.24088 -1.47222 -4.30698 0.0640827 1 -7.34197 0.0128977 4
364 1 2.66245 2.68804 4.48519 -8.81962 -18.3904 -2.79112 1 -7.35543 0.263773 4
365 1 3.53394 1.80959 5.35612 -8.75684 0.95429 -3.53862 1 -7.29573 0.0560898 4
366 1 1.78155 3.59056 5.39114 2.21853 2.06834 -5.67497 1 -7.37928 0.0257717 4
367 1 1.75051 1.76312 7.17797 -3.25301 -4.44379 0.644748 1 -7.29555 0.0191365 4
368 1 0.84699 0.886516 8.08561 0.372665 -0.714439 0.167743 1 -7.32776 0.000421656 4
369 1 2.60453 2.70901 8.05039 -7.96844 0.376533 0.807384 1 -7.30568 0.0400155 4
370 1 3.5538 3.61379 7.12513 1.9235 6.60113 -0.958859 1 -7.20901 0.0299973 4
411 1 -0.0101425 1.78383 5.33732 -2.21237 -2.24197 1.68677 1 -7.44208 0.00794601 4
371 1 0.0541541 3.54407 7.15332 0.861051 -1.65238 -3.22168 1 -7.2999 0.00862122 4
651 1 3.57505 0.0279454 7.14614 -11.5833 4.86045 -3.49095 1 -7.34056 0.105803 4
710 1 -0.0107171 0.0123029 7.17147 3.17069 1.99587 2.60339 1 -7.31417 0.0129554 4
652 1 1.75765 0.0385378 5.32509 5.75159 -2.05934 0.00130183 1 -7.36355 0.02323 4
372 1 4.45715 0.871335 4.45107 -2.52128 -5.06643 5.16513 1 -7.32963 0.036539 4
373 1 4.47765 2.65568 6.23648 4.23257 2.42288 -4.63628 1 -7.28339 0.0281835 4
374 1 6.21459 0.889798 6.30884 -7.96201 -0.96815 3.0976 1 -7.34754 0.0460135 4
375 1 6.23328 2.646 4.4904 -5.90337 8.99891 0.196304 1 -7.33318 0.0721197 4
376 1 7.09068 1.73227 5.34562 5.73505 0.710058 -1.53818 1 -7.27691 0.0222585 4
377 1 8.00708 0.861414 4.43755 -6.99873 -2.11771 4.09669 1 -7.32202 0.0437253 4
378 1 8.02254 2.62989 6.2545 3.18343 -4.37025 -7.8809 1 -7.29375 0.0568535 4
379 1 5.37193 3.58103 5.42959 1.05588 0.922435 -2.62326 1 -7.27778 0.00550675 4
380 1 5.36406 1.79457 7.19571 -1.1112 5.92649 0.555954 1 -7.35943 0.0228225 4
381 1 4.42908 0.898339 8.08835 -2.25186 5.90428 3.29311 1 -7.34692 0.0316043 4
382 1 6.21813 2.67686 8.09214 -7.67947 -3.34544 3.95349 1 -7.39781 0.0534018 4
383 1 8.01781 0.838215 8.0603 4.79084 -1.13482 -3.30194 1 -7.36571 0.0218738 4
384 1 7.13037 3.54475 7.19425 1.03658 -3.76735 -1.89602 1 -7.34954 0.0117404 4
665 1 7.1474 -0.00409834 7.15806 2.01444 -0.368672 3.04532 1 -7.36495 0.00838277 4
386 1 9.82376 0.889712 6.21751 -4.77995 -5.38544 0.388202 1 -7.3912 0.0323672 4
387 1 9.81312 2.67413 4.48005 0.410993 -2.91875 -2.9164 1 -7.35839 0.0107016 4
388 1 10.6945 1.78143 5.38257 0.117138 0.588607 1.39286 1 -7.35602 0.00143172 4
389 1 11.5799 0.889935 4.44094 1.20362 1.26141 2.8216 1 -7.28257 0.00684748 4
390 1 11.5999 2.65096 6.25876 -0.24492 2.76968 -1.25524 1 -7.37416 0.00579276 4
391 1 8.91972 3.57524 5.3685 -0.423223 -1.52934 7.03745 1 -7.31165 0.0323934 4
392 1 12.4912 3.54408 5.35831 -5.94642 1.48531 -2.23462 1 -7.33969 0.0264902 4
393 1 8.92357 1.71828 7.13567 6.20835 4.90935 7.53061 1 -7.31049 0.07429 4
394 1 9.7817 2.63686 8.04003 3.72786 -1.52778 1.92368 1 -7.35345 0.012406 4
395 1 12.5311 1.79971 7.16177 -1.55907 -3.00875 0.345033 1 -7.37275 0.00722161 4
396 1 11.6275 0.865479 8.05598 -6.36605 -1.28433 -0.190712 1 -7.30305 0.0262741 4
397 1 10.6754 3.53724 7.12573 5.08463 -0.874731 5.14011 1 -7.29524 0.0330131 4
398 1 13.4028 0.91225 6.30958 -4.34217 1.98157 -3.17718 1 -7.35974 0.0204626 4
399 1 13.4231 2.67833 4.44784 0.636882 -15.8818 1.74756 1 -7.3872 0.159149 4
400 1 14.2689 1.773 5.34667 -6.52447 3.60846 -3.52937 1 -7.31141 0.0423537 4
401 1 15.1395 0.855009 4.44939 5.39817 1.55224 3.61473 1 -7.34972 0.0277701 4
402 1 15.215 2.65793 6.23534 -2.67117 -4.69486 -5.36228 1 -7.26895 0.0360577 4
403 1 16.9258 0.901473 6.26872 -9.31794 4.40841 -5.00611 1 -7.2961 0.0817365 4
404 1 16.9659 2.62614 4.48095 -1.17429 2.06242 -4.98308 1 -7.32258 0.0189614 4
405 1 16.076 3.56355 5.32649 -4.14141 -2.11574 -0.917781 1 -7.37319 0.0139859 4
406 1 13.434 2.65262 8.04581 6.82365 4.68598 -1.13154 1 -7.33603 0.043446 4
407 1 16.0902 1.74512 7.14167 -7.90917 5.61743 -5.14838 1 -7.3595 0.0750747 4
408 1 15.172 0.918602 8.03899 3.7824 4.05993 0.162554 1 -7.35451 0.0191806 4
409 1 16.9952 2.66635 8.05259 0.264343 -7.59227 0.350285 1 -7.29164 0.0359981 4
410 1 14.3147 3.55926 7.12662 -13.7907 3.51245 2.72296 1 -7.33279 0.130669 4
412 1 17.8285 1.78508 5.35417 -10.3494 2.90473 -4.66178 1 -7.32545 0.0854463 4
413 1 18.7032 0.858863 4.43687 7.48232 -5.598 4.73157 1 -7.32321 0.0682867 4
414 1 18.7326 2.68092 6.26966 2.8341 -5.82561 3.2678 1 -7.31481 0.0327697 4
415 1 20.513 0.913023 6.20759 6.39524 -3.22576 -3.82915 1 -7.35903 0.0410596 4
416 1 20.508 2.67514 4.47374 -2.62529 -4.1194 -8.03907 1 -7.3711 0.0550774 4
417 1 19.5876 3.57488 5.34833 2.70199 2.73254 7.3066 1 -7.33797 0.0424208 4
418 1 19.6562 1.77014 7.16027 -1.22056 2.58428 0.2749 1 -7.26801 0.00513118 4
419 1 18.7033 0.893002 8.05088 -5.68491 -0.515387 -4.06339 1 -7.36363 0.030558 4
420 1 20.5248 2.68623 8.11831 1.74297 5.68537 -6.71995 1 -7.28263 0.0501172 4
421 1 17.8267 3.58984 7.1352 1.70931 5.87182 1.87887 1 -7.34419 0.025476 4
423 1 0.881572 4.42146 4.47228 1.96526 -5.96288 1.05699 1 -7.29281 0.0252303 4
424 1 0.855118 6.2579 6.24055 -6.92594 -1.03395 -0.857989 1 -7.2721 0.0309806 4
425 1 2.67839 4.46901 6.23126 2.45427 1.92867 3.70901 1 -7.40478 0.014627 4
426 1 2.6716 6.16036 4.481 2.60132 0.522437 -2.38457 1 -7.31641 0.00792099 4
427 1 3.55326 5.35253 5.38629 -1.77866 2.64818 -6.8808 1 -7.40922 0.0358031 4
428 1 1.75469 7.11753 5.35003 -2.36619 -2.20388 -2.04951 1 -7.32921 0.00912254 4
429 1 0.892599 8.01337 4.39835 -0.235817 0.0509946 -4.12894 1 -7.31967 0.0106474 4
430 1 2.64231 7.97577 6.22366 -11.8 4.63546 -0.56665 1 -7.24336 0.10024 4
431 1 1.80839 5.36109 7.17762 -6.62128 -6.39098 -7.50494 1 -7.25143 0.0877684 4
432 1 0.886584 4.45464 8.06774 0.233292 3.89272 -4.06976 1 -7.34395 0.0197749 4
433 1 2.64993 6.24218 8.1034 7.52013 -5.88922 -3.37095 1 -7.34471 0.06386 4
434 1 0.870529 8.01017 8.01998 7.20206 2.15482 -4.61071 1 -7.30747 0.0484071 4