ITEM: TIMESTEP
49125900
ITEM: NUMBER OF ATOMS
3060
ITEM: BOX BOUNDS pp pp mm
0.0000000000000000e+00 2.1394294200000001e+01
0.0000000000000000e+00 2.1394294200000001e+01
-5.3491084073550004e-03 5.3485735499999997e+01
ITEM: ATOMS id type x y z vx vy vz c_clusts c_atom_pe c_atom_ke c_atom_coord
1 1 0 0 0 0 0 0 1 -3.33014 0 2
2 1 1.78286 1.78286 0 0 0 0 1 -3.30042 0 2
3 1 0.891429 0.891429 0.891429 0 0 0 1 -7.01082 0 4
4 1 0.872096 2.69077 2.70261 -0.218224 -11.6317 3.95059 1 -7.2949 0.0939561 4
5 1 2.6356 0.876274 2.63021 2.49375 -3.43006 4.99855 1 -7.25573 0.0267454 4
6 1 2.67429 2.67429 0.891429 0 0 0 1 -7.03686 0 4
7 1 3.56572 0 0 0 0 0 1 -3.3317 0 2
8 1 3.55353 1.75595 1.74283 -2.15895 -4.35541 -2.97738 1 -7.3621 0.020226 4
9 1 0 3.56572 0 0 0 0 1 -3.3044 0 2
10 1 1.76436 3.54636 1.77628 0.83699 -0.159087 -1.99349 1 -7.29792 0.00292531 4
11 1 3.56572 3.56572 0 0 0 0 1 -3.33743 0 2
12 1 1.83669 1.82711 3.58452 -1.59963 3.47271 -2.62386 1 -7.26393 0.0133841 4
13 1 3.62647 3.56026 3.61262 1.81253 -14.7195 4.44338 1 -7.35999 0.149192 4
292 1 1.79587 0.00968006 1.77892 5.33631 -0.933388 -3.27153 1 -7.37443 0.0249284 4
56 1 0.0133177 3.60639 3.58045 -4.2699 -5.80528 -0.550552 1 -7.315 0.0325133 4
55 1 -0.0107485 1.81787 1.77555 -2.07182 1.55148 -1.62297 1 -7.35926 0.00580946 4
291 1 3.55583 -0.0404873 3.55431 -0.992906 -2.26119 4.62601 1 -7.27618 0.017116 4
350 1 0.0158568 0.0360303 3.52471 3.42011 4.01046 -0.83112 1 -7.32132 0.0177215 4
14 1 5.34857 1.78286 0 0 0 0 1 -3.32576 0 2
15 1 4.45714 0.891429 0.891429 0 0 0 1 -7.02085 0 4
16 1 4.45602 2.59958 2.7078 -0.955084 -1.09436 -4.70396 1 -7.32581 0.0150858 4
17 1 6.26957 0.887947 2.67746 4.093 -0.634418 -4.94825 1 -7.37341 0.025918 4
18 1 6.24 2.67429 0.891429 0 0 0 1 -6.98727 0 4
19 1 7.13143 0 0 0 0 0 1 -3.3292 0 2
20 1 7.15501 1.7666 1.74996 -4.38882 -1.50078 2.95033 1 -7.33448 0.0188088 4
21 1 8.02286 0.891429 0.891429 0 0 0 1 -7.05112 0 4
22 1 8.03535 2.67513 2.65173 11.6623 1.88874 -1.38395 1 -7.32188 0.0880685 4
23 1 5.34368 3.53693 1.82807 -0.665467 -3.8055 -3.67326 1 -7.25478 0.0176878 4
24 1 7.13143 3.56572 0 0 0 0 1 -3.33939 0 2
25 1 5.38837 1.72986 3.59416 -7.96759 0.672268 8.9753 1 -7.36233 0.0899346 4
26 1 7.11471 3.52117 3.53643 -0.631417 0.687068 3.65548 1 -7.32168 0.00885917 4
306 1 7.166 -0.0478998 3.56367 -12.3647 -7.07445 13.52 1 -7.31925 0.240083 4
28 1 8.91429 1.78286 0 0 0 0 1 -3.33077 0 2
29 1 9.80556 0.821261 2.68264 -8.46021 1.76863 6.08029 1 -7.29816 0.0695083 4
30 1 9.80572 2.67429 0.891429 0 0 0 1 -7.04017 0 4
31 1 10.6971 0 0 0 0 0 1 -3.32936 0 2
32 1 10.6634 1.76824 1.77183 1.24122 4.14998 -3.81174 1 -7.32621 0.020722 4
33 1 12.48 1.78286 0 0 0 0 1 -3.33119 0 2
34 1 11.5886 0.891429 0.891429 0 0 0 1 -6.99703 0 4
35 1 11.5775 2.69072 2.66846 2.59572 -1.43415 -1.11787 1 -7.3042 0.00625176 4
36 1 8.94581 3.52888 1.79149 -5.18846 -0.0421594 -1.48 1 -7.38687 0.0181202 4
37 1 10.6971 3.56572 0 0 0 0 1 -3.34589 0 2
38 1 12.4895 3.56039 1.77609 -1.39587 -4.64007 -8.11635 1 -7.34849 0.0556162 4
39 1 8.89567 1.74787 3.60207 -0.0938411 -1.05378 4.70413 1 -7.26054 0.0144702 4
40 1 12.509 1.77556 3.50652 9.30697 -4.66634 -2.54976 1 -7.30369 0.0715141 4
41 1 10.72 3.57271 3.58188 4.85496 2.91715 0.333151 1 -7.38017 0.0200368 4
319 1 10.6778 -0.0692554 3.56764 -7.60127 0.314284 -0.115846 1 -7.33912 0.0360332 4
42 1 13.3592 0.889245 2.674 -5.54424 -1.58161 -3.83244 1 -7.40513 0.0298314 4
43 1 13.3714 2.67429 0.891429 0 0 0 1 -7.00147 0 4
44 1 14.2629 0 0 0 0 0 1 -3.31641 0 2
45 1 14.2636 1.74744 1.77572 4.03516 0.99644 3.05301 1 -7.34318 0.0165542 4
46 1 16.0457 1.78286 0 0 0 0 1 -3.34479 0 2
47 1 15.1543 0.891429 0.891429 0 0 0 1 -7.02964 0 4
48 1 15.1264 2.67064 2.67206 -5.25206 -4.36376 -7.99684 1 -7.35102 0.0688254 4
49 1 16.9088 0.913214 2.65884 5.21725 -0.0429935 -3.23461 1 -7.34408 0.0234556 4
50 1 16.9371 2.67429 0.891429 0 0 0 1 -7.01401 0 4
51 1 14.2629 3.56572 0 0 0 0 1 -3.32287 0 2
52 1 16.0342 3.56459 1.76982 -6.86268 5.46776 -1.92617 1 -7.34868 0.0502317 4
53 1 16.0036 1.76627 3.56344 3.99659 -8.58845 3.03815 1 -7.32243 0.0615981 4
54 1 14.2791 3.56194 3.54588 -0.834029 -7.48963 1.86264 1 -7.39355 0.0375072 4
336 1 14.2622 -0.021867 3.53453 -9.30531 2.22015 3.38579 1 -7.36679 0.0640984 4
57 1 17.8286 0 0 0 0 0 1 -3.34096 0 2
58 1 17.8139 1.82643 1.79765 6.07223 1.13227 3.92321 1 -7.31937 0.0333282 4
59 1 19.6114 1.78286 0 0 0 0 1 -3.33439 0 2
60 1 18.72 0.891429 0.891429 0 0 0 1 -6.98029 0 4
61 1 18.7886 2.68585 2.6796 5.61153 -7.37194 0.452489 1 -7.30927 0.0535532 4
62 1 20.5126 0.933118 2.65486 -1.14863 -4.258 6.33532 1 -7.33759 0.037088 4
63 1 20.5029 2.67429 0.891429 0 0 0 1 -7.03073 0 4
64 1 17.8286 3.56572 0 0 0 0 1 -3.33609 0 2
65 1 19.646 3.57083 1.78455 -1.3038 -0.683587 -5.22694 1 -7.40008 0.0183541 4
66 1 19.6133 1.79459 3.5805 0.392808 -6.33079 1.60556 1 -7.37094 0.0266467 4
67 1 17.8708 3.55795 3.57922 0.155377 -0.527798 -2.90811 1 -7.32078 0.00545232 4
68 1 19.6238 0.0193087 1.76133 -2.20862 2.27498 -2.1201 1 -7.34317 0.00905528 4
349 1 17.8318 0.0192299 3.55461 -0.846497 -6.30637 4.43199 1 -7.38136 0.0374261 4
69 1 1.78286 5.34857 0 0 0 0 1 -3.32494 0 2
70 1 0.891429 4.45714 0.891429 0 0 0 1 -7.02258 0 4
71 1 0.912985 6.16422 2.65774 6.3765 3.6851 7.29177 1 -7.31135 0.0668546 4
72 1 2.69635 4.39617 2.73415 3.81051 5.41745 1.8949 1 -7.29866 0.02954 4
73 1 2.67429 6.24 0.891429 0 0 0 1 -7.01542 0 4
74 1 3.56177 5.32479 1.79677 6.73453 -5.68882 -2.92358 1 -7.3422 0.0536928 4
75 1 0 7.13143 0 0 0 0 1 -3.33218 0 2
76 1 1.75797 7.09639 1.73684 -1.62311 -3.90489 2.9208 1 -7.30629 0.0164406 4
77 1 0.891429 8.02286 0.891429 0 0 0 1 -7.04429 0 4
78 1 2.6773 8.04902 2.65233 2.70659 2.29997 -2.16437 1 -7.27629 0.010768 4
79 1 3.56572 7.13143 0 0 0 0 1 -3.34131 0 2
80 1 1.77125 5.29729 3.5776 0.932032 4.8618 -2.72435 1 -7.37289 0.0198727 4
81 1 3.55659 7.14583 3.58723 -3.84408 0.993433 2.77203 1 -7.25747 0.0145946 4
128 1 -0.0282615 5.32143 1.75365 -1.37286 1.8924 -1.32248 1 -7.34258 0.00449075 4
82 1 -0.0111603 7.0947 3.57489 -9.18267 1.97053 2.83259 1 -7.26081 0.0598948 4
83 1 5.34857 5.34857 0 0 0 0 1 -3.36259 0 2
84 1 4.45714 4.45714 0.891429 0 0 0 1 -6.95939 0 4
85 1 4.46786 6.18842 2.67057 -4.64179 1.50015 0.287803 1 -7.26403 0.0148632 4
86 1 6.25644 4.4845 2.65506 -0.459055 -0.520586 2.09624 1 -7.29669 0.00303492 4
87 1 6.24 6.24 0.891429 0 0 0 1 -7.04051 0 4
88 1 7.15385 5.39408 1.73588 0.510416 -1.49817 -1.55716 1 -7.33039 0.00306842 4
89 1 8.02286 4.45714 0.891429 0 0 0 1 -6.96777 0 4
90 1 8.05877 6.25014 2.68184 5.93187 -3.86851 3.32656 1 -7.39119 0.0381039 4
91 1 5.36468 7.13545 1.77641 -4.99328 -2.2943 -0.750284 1 -7.33309 0.0191456 4
92 1 4.45714 8.02286 0.891429 0 0 0 1 -7.01045 0 4
93 1 6.17335 8.02724 2.67844 -4.26299 -1.76827 -8.94605 1 -7.30106 0.0630715 4
94 1 7.13143 7.13143 0 0 0 0 1 -3.29908 0 2
95 1 8.02286 8.02286 0.891429 0 0 0 1 -7.0069 0 4
96 1 5.40163 5.38571 3.54832 1.13856 1.13287 -6.66626 1 -7.34066 0.0292657 4
97 1 7.16934 7.13188 3.5742 -7.51926 3.23271 4.89308 1 -7.31025 0.0565985 4
98 1 8.91429 5.34857 0 0 0 0 1 -3.31073 0 2
99 1 9.80188 4.43104 2.6737 -3.68272 0.928197 2.38454 1 -7.38272 0.012517 4
100 1 9.80572 6.24 0.891429 0 0 0 1 -7.01133 0 4
101 1 10.7057 5.31635 1.78249 -7.09928 2.43386 -1.28629 1 -7.34821 0.036087 4
102 1 12.48 5.34857 0 0 0 0 1 -3.34035 0 2
103 1 11.5886 4.45714 0.891429 0 0 0 1 -7.02858 0 4
104 1 11.6125 6.22802 2.69576 -5.23154 -3.41326 5.31726 1 -7.35602 0.0418847 4
105 1 8.94616 7.12978 1.77224 -5.98393 -0.413339 10.9299 1 -7.35422 0.0967506 4
106 1 9.84593 8.05199 2.63694 5.57856 7.04513 -2.13587 1 -7.33422 0.053103 4
107 1 10.6971 7.13143 0 0 0 0 1 -3.32459 0 2
108 1 12.5011 7.08586 1.8236 -0.310479 4.09871 -1.43101 1 -7.35014 0.011791 4
109 1 11.5886 8.02286 0.891429 0 0 0 1 -6.9354 0 4
110 1 8.91527 5.30902 3.53558 5.45916 -3.98243 11.7575 1 -7.39491 0.114465 4
111 1 12.4639 5.35412 3.59942 1.51583 -5.34773 1.98229 1 -7.26613 0.0216763 4
112 1 10.7098 7.16233 3.58273 1.42007 6.11171 0.975497 1 -7.32092 0.025097 4
113 1 13.3863 4.40696 2.68715 -0.592885 7.3971 5.02621 1 -7.25858 0.0500004 4
114 1 13.3714 6.24 0.891429 0 0 0 1 -7.03717 0 4
115 1 14.225 5.37825 1.74202 0.90166 1.63296 -9.14201 1 -7.2175 0.0541859 4
116 1 16.0457 5.34857 0 0 0 0 1 -3.32803 0 2
117 1 15.1543 4.45714 0.891429 0 0 0 1 -6.98926 0 4
118 1 15.1849 6.27313 2.65794 -7.84532 0.228125 5.52705 1 -7.2875 0.0573562 4
119 1 16.9745 4.4344 2.6697 -1.94242 -2.87138 9.74121 1 -7.2959 0.0665429 4
120 1 16.9371 6.24 0.891429 0 0 0 1 -7.04486 0 4
121 1 13.3866 7.99176 2.69771 -0.395823 2.73509 -1.01464 1 -7.32321 0.0053945 4
122 1 14.2629 7.13143 0 0 0 0 1 -3.35697 0 2
123 1 16.0771 7.14851 1.75193 2.7212 -4.50528 -4.58589 1 -7.38904 0.0303326 4
124 1 15.1543 8.02286 0.891429 0 0 0 1 -7.01986 0 4
125 1 16.9545 8.01901 2.69395 1.67034 -10.0277 -12.5679 1 -7.28989 0.162637 4
126 1 16.0262 5.36436 3.56627 1.09309 9.66912 -5.12011 1 -7.29316 0.0752527 4
127 1 14.2735 7.10016 3.58626 4.09712 -0.183914 4.10354 1 -7.32889 0.0209504 4
129 1 17.8319 5.3358 1.75809 1.32817 3.34325 -1.71048 1 -7.39027 0.0098761 4
130 1 19.6114 5.34857 0 0 0 0 1 -3.29646 0 2
131 1 18.72 4.45714 0.891429 0 0 0 1 -7.01287 0 4
132 1 18.7176 6.23156 2.65701 3.69285 -3.11316 4.50219 1 -7.33391 0.0271369 4
133 1 20.493 4.45621 2.64258 -0.305774 -0.996469 1.91852 1 -7.33781 0.00296721 4
134 1 20.5029 6.24 0.891429 0 0 0 1 -7.01826 0 4
135 1 17.8286 7.13143 0 0 0 0 1 -3.32225 0 2
136 1 19.5607 7.11711 1.7808 -1.79438 -4.98645 5.44984 1 -7.33783 0.0359671 4
137 1 18.72 8.02286 0.891429 0 0 0 1 -7.00987 0 4
138 1 20.4768 8.03189 2.66467 -3.46901 -4.76351 3.08536 1 -7.31724 0.0275389 4
139 1 19.6327 5.34339 3.5902 4.2614 -0.976245 -2.85095 1 -7.33638 0.0169552 4
140 1 17.8761 7.16305 3.59793 0.801978 2.67802 -0.352747 1 -7.32364 0.00494167 4
141 1 1.78286 8.91429 0 0 0 0 1 -3.34067 0 2
142 1 0.903479 9.80403 2.65461 1.30574 -4.54147 10.4919 1 -7.34146 0.0824156 4
143 1 2.67429 9.80572 0.891429 0 0 0 1 -7.00726 0 4
144 1 3.54667 8.92217 1.76241 3.34891 -4.36435 3.02049 1 -7.37542 0.024515 4
145 1 0 10.6971 0 0 0 0 1 -3.33194 0 2
146 1 1.78366 10.7104 1.78169 -3.75839 0.0507209 -9.54572 1 -7.37067 0.0655096 4
147 1 1.78286 12.48 0 0 0 0 1 -3.30488 0 2
148 1 0.891429 11.5886 0.891429 0 0 0 1 -7.04274 0 4
149 1 2.68007 11.5739 2.64755 -0.681646 0.730916 -1.96124 1 -7.40017 0.00301586 4
150 1 3.56572 10.6971 0 0 0 0 1 -3.33247 0 2
151 1 3.57653 12.4394 1.75963 -13.2188 0.6336 -0.813907 1 -7.3003 0.109423 4
152 1 1.79258 8.9298 3.59521 3.93342 1.72656 -2.69904 1 -7.28462 0.0160198 4
153 1 1.86373 12.4864 3.52954 -3.74893 1.20037 -0.288746 1 -7.36719 0.0096966 4
154 1 3.5737 10.6866 3.49293 -2.92813 4.22862 -5.33265 1 -7.2497 0.0341664 4
205 1 0.021523 8.88733 1.77539 7.79864 -5.71945 -1.6322 1 -7.39635 0.0598743 4
204 1 0.0274687 12.5029 1.75508 12.8013 -1.76385 -1.01066 1 -7.3169 0.104571 4
155 1 5.34857 8.91429 0 0 0 0 1 -3.32017 0 2
156 1 4.45935 9.82338 2.6463 -7.04284 -4.90116 0.0593161 1 -7.31196 0.045827 4
157 1 6.24 9.80572 0.891429 0 0 0 1 -7.00057 0 4
158 1 7.08582 8.89354 1.77054 -14.0104 -3.65559 1.52713 1 -7.34713 0.131946 4
159 1 7.9822 9.80214 2.64061 1.71779 -5.15956 -7.44979 1 -7.31274 0.0529506 4
160 1 5.36352 10.711 1.7884 3.99774 -6.40118 2.38075 1 -7.37773 0.0389795 4
161 1 5.34857 12.48 0 0 0 0 1 -3.33272 0 2
162 1 4.45714 11.5886 0.891429 0 0 0 1 -7.00933 0 4
163 1 6.24324 11.6016 2.66906 -0.285092 3.49092 -1.87017 1 -7.3954 0.00981274 4
164 1 7.13143 10.6971 0 0 0 0 1 -3.34292 0 2
165 1 7.11745 12.4692 1.79858 -2.64615 1.27181 4.80674 1 -7.35763 0.0197461 4
166 1 8.02286 11.5886 0.891429 0 0 0 1 -7.01766 0 4
167 1 5.31202 8.89006 3.59429 -2.48796 4.45417 0.498945 1 -7.38171 0.0163564 4
168 1 5.34509 12.4897 3.55016 -10.8585 -2.25343 0.0555965 1 -7.37366 0.0765516 4
169 1 7.11025 10.6971 3.55432 -2.25518 6.80284 4.32572 1 -7.36194 0.0436174 4
170 1 8.91429 8.91429 0 0 0 0 1 -3.33207 0 2
171 1 9.80572 9.80572 0.891429 0 0 0 1 -6.99199 0 4
172 1 10.6764 8.95486 1.75637 8.20384 3.73289 4.67989 1 -7.35193 0.0641963 4
173 1 12.48 8.91429 0 0 0 0 1 -3.34054 0 2
174 1 11.6137 9.81444 2.68813 6.31563 3.1167 3.71348 1 -7.3189 0.0394562 4
175 1 8.86916 10.7388 1.78173 -4.07851 -1.94089 0.444696 1 -7.3145 0.0128214 4
176 1 8.91429 12.48 0 0 0 0 1 -3.3469 0 2
177 1 9.81761 11.6039 2.65342 6.07204 0.457841 2.89827 1 -7.34026 0.0283074 4
178 1 10.6971 10.6971 0 0 0 0 1 -3.33528 0 2
179 1 10.72 12.4581 1.78774 6.92138 3.15427 -5.48695 1 -7.37181 0.0547495 4
180 1 12.5179 10.7011 1.78274 0.400311 3.60865 0.341044 1 -7.33391 0.00827759 4
181 1 12.48 12.48 0 0 0 0 1 -3.325 0 2
182 1 11.5886 11.5886 0.891429 0 0 0 1 -7.00872 0 4
183 1 8.90685 8.93196 3.55377 -1.5273 -0.731467 4.77892 1 -7.30807 0.0159999 4
184 1 12.5142 8.90994 3.59714 -0.717167 11.0206 9.54752 1 -7.35849 0.132654 4
185 1 8.91757 12.5156 3.54351 -0.786141 2.40587 -1.58858 1 -7.26751 0.00555816 4
186 1 10.7103 10.7199 3.54719 4.83399 -4.55271 -1.98267 1 -7.35907 0.0298924 4
187 1 12.5047 12.5436 3.59604 1.51411 6.26321 -0.246743 1 -7.36247 0.0258812 4
188 1 13.3714 9.80572 0.891429 0 0 0 1 -7.02762 0 4
189 1 14.2816 8.91001 1.79618 -4.02628 0.402064 -1.23131 1 -7.37064 0.0111344 4
190 1 16.0457 8.91429 0 0 0 0 1 -3.34814 0 2
191 1 15.1642 9.78358 2.67487 1.30943 8.07284 -9.01449 1 -7.28258 0.0922102 4
192 1 16.9371 9.80572 0.891429 0 0 0 1 -6.99224 0 4
193 1 13.3793 11.6039 2.68103 -0.0610016 1.14413 -5.97974 1 -7.29851 0.0230734 4
194 1 14.2629 10.6971 0 0 0 0 1 -3.33856 0 2
195 1 14.2589 12.4791 1.75973 -5.71177 4.93822 -1.18713 1 -7.29451 0.0363619 4
196 1 16.0869 10.7554 1.77152 -5.5796 0.720846 -2.89725 1 -7.27864 0.0249254 4
197 1 16.0457 12.48 0 0 0 0 1 -3.30984 0 2
198 1 15.1543 11.5886 0.891429 0 0 0 1 -7.054 0 4
199 1 16.9524 11.5665 2.72511 3.49611 -5.9567 1.83428 1 -7.38468 0.0317871 4
200 1 16.0394 8.85791 3.58334 -5.42318 3.83257 1.16303 1 -7.35845 0.0282906 4
201 1 14.3045 10.6929 3.55203 5.62351 1.26743 6.66317 1 -7.29163 0.0483177 4
202 1 16.0791 12.4778 3.58815 -2.70627 1.06802 -0.202908 1 -7.32569 0.00529421 4
203 1 21.4708 10.737 3.55214 -0.909843 -6.8267 4.64388 1 -7.27278 0.0429457 4
206 1 17.8626 8.95067 1.79419 -2.25734 0.560418 -2.59862 1 -7.32117 0.00757027 4
207 1 19.6114 8.91429 0 0 0 0 1 -3.34389 0 2
208 1 18.7257 9.81873 2.7275 6.75436 -0.459953 0.833452 1 -7.30191 0.02896 4
209 1 20.5029 9.80572 0.891429 0 0 0 1 -7.0041 0 4
210 1 17.8286 10.6971 0 0 0 0 1 -3.30898 0 2
211 1 17.8189 12.4879 1.78046 1.54538 -5.11777 -6.57593 1 -7.31906 0.0447042 4
212 1 19.661 10.7109 1.79077 -6.8245 -2.15637 5.49676 1 -7.28199 0.0506892 4
213 1 19.6114 12.48 0 0 0 0 1 -3.31185 0 2
214 1 18.72 11.5886 0.891429 0 0 0 1 -6.98038 0 4
215 1 20.5321 11.6508 2.69623 -2.74768 -3.80797 -0.591837 1 -7.27225 0.0139428 4
216 1 19.6393 8.93765 3.60209 5.90091 -7.00618 5.10679 1 -7.33226 0.0684585 4
217 1 17.8302 10.6921 3.59366 -9.09155 -2.02871 4.03766 1 -7.38242 0.0641564 4
218 1 19.6009 12.4776 3.59045 -1.5835 -2.81512 1.83841 1 -7.37621 0.00859704 4
219 1 0.926922 13.3821 2.66258 -1.56664 -2.95066 -0.871316 1 -7.34653 0.00741928 4
220 1 2.67429 13.3714 0.891429 0 0 0 1 -7.01094 0 4
221 1 0 14.2629 0 0 0 0 1 -3.32785 0 2
222 1 1.78312 14.256 1.76239 4.47322 -4.05146 -1.2974 1 -7.32796 0.0237189 4
223 1 1.78286 16.0457 0 0 0 0 1 -3.32851 0 2
224 1 0.891429 15.1543 0.891429 0 0 0 1 -7.04701 0 4
225 1 0.868404 16.9243 2.6798 0.487836 -1.34443 2.6621 1 -7.33002 0.00568415 4
226 1 2.68456 15.1525 2.68969 2.83657 -10.2053 1.11078 1 -7.29967 0.0706001 4
227 1 2.67429 16.9371 0.891429 0 0 0 1 -7.04444 0 4
228 1 3.56572 14.2629 0 0 0 0 1 -3.32938 0 2
229 1 3.54396 16.0903 1.75292 3.82853 -2.93239 1.87625 1 -7.32423 0.0166666 4
230 1 1.77381 16.0599 3.55656 1.65656 -1.64184 3.43296 1 -7.32427 0.0107213 4
231 1 3.5675 14.2191 3.52341 -1.76393 1.32074 -0.122784 1 -7.33389 0.00303177 4
233 1 0.00165081 16.0259 1.74474 5.61077 3.34795 0.886365 1 -7.35179 0.0270601 4
232 1 -0.00294966 14.2331 3.51119 -0.192196 -0.834065 -11.8036 1 -7.41285 0.0871753 4
234 1 4.49143 13.3629 2.66455 3.49414 4.67782 -2.61676 1 -7.34498 0.0254811 4
235 1 6.24 13.3714 0.891429 0 0 0 1 -7.01272 0 4
236 1 8.01209 13.401 2.67496 -7.5354 -3.24332 -3.24913 1 -7.3656 0.048461 4
237 1 5.35426 14.2701 1.76124 7.8196 -1.72196 0.93213 1 -7.39567 0.0404453 4
238 1 5.34857 16.0457 0 0 0 0 1 -3.32401 0 2
239 1 4.45714 15.1543 0.891429 0 0 0 1 -7.00256 0 4
240 1 4.45893 16.9567 2.68032 4.16491 -8.42285 -7.08404 1 -7.29913 0.0861901 4
241 1 6.20913 15.1781 2.68864 -2.25481 5.3412 0.00913398 1 -7.29419 0.0209214 4
242 1 6.24 16.9371 0.891429 0 0 0 1 -7.01328 0 4
243 1 7.13143 14.2629 0 0 0 0 1 -3.3463 0 2
244 1 7.16505 16.0617 1.78069 -3.33229 1.47376 -4.0419 1 -7.25348 0.018432 4
245 1 8.02286 15.1543 0.891429 0 0 0 1 -7.02097 0 4
246 1 8.07182 16.9428 2.70401 4.14195 0.938081 -8.2959 1 -7.36057 0.0540625 4
247 1 5.3643 16.0846 3.57271 -1.79669 1.88635 -2.56689 1 -7.33915 0.00832516 4
248 1 7.14409 14.2826 3.55187 1.4261 -5.18564 6.53389 1 -7.34524 0.0445759 4
249 1 9.80572 13.3714 0.891429 0 0 0 1 -7.01982 0 4
250 1 11.6265 13.3381 2.69741 -3.75765 2.48977 4.07381 1 -7.3174 0.0229768 4
251 1 8.92882 14.2665 1.77331 -9.46146 5.44769 -0.770148 1 -7.34071 0.0745602 4
252 1 8.91429 16.0457 0 0 0 0 1 -3.32213 0 2
253 1 9.82671 15.1739 2.69344 -6.41224 -4.80401 -2.83152 1 -7.37097 0.0449472 4
254 1 9.80572 16.9371 0.891429 0 0 0 1 -7.02189 0 4
255 1 10.6971 14.2629 0 0 0 0 1 -3.33529 0 2
256 1 10.6919 16.06 1.78142 -9.40072 -0.691429 -2.14305 1 -7.36417 0.0581622 4
257 1 12.4695 14.3012 1.77241 -0.125521 1.38086 5.47583 1 -7.29398 0.0198599 4
258 1 12.48 16.0457 0 0 0 0 1 -3.32208 0 2
259 1 11.5886 15.1543 0.891429 0 0 0 1 -7.05027 0 4
260 1 11.5908 16.9425 2.70439 -14.2617 0.37936 -2.05863 1 -7.34738 0.129327 4
261 1 8.92786 16.0368 3.55216 -3.80238 -7.29381 -2.39565 1 -7.40148 0.0456842 4
262 1 10.7331 14.2741 3.57018 -5.19046 -5.93573 15.6361 1 -7.32212 0.190874 4
263 1 12.4975 16.0918 3.59574 8.38418 -3.80648 -0.818183 1 -7.27598 0.0531883 4
264 1 13.3714 13.3714 0.891429 0 0 0 1 -6.99475 0 4
265 1 15.1519 13.4039 2.72836 2.19264 -6.27093 2.82075 1 -7.31983 0.0324215 4
266 1 16.9371 13.3714 0.891429 0 0 0 1 -7.05484 0 4
267 1 13.3872 15.1829 2.69129 -1.32228 -3.62234 -3.88391 1 -7.34417 0.0186445 4
268 1 13.3714 16.9371 0.891429 0 0 0 1 -7.04508 0 4
269 1 14.2629 14.2629 0 0 0 0 1 -3.31586 0 2
270 1 14.2694 16.0294 1.744 -6.58993 -0.471916 4.91282 1 -7.32979 0.0421916 4
271 1 16.0305 14.2554 1.79396 -1.50464 3.66695 6.19753 1 -7.32069 0.0336856 4
272 1 16.0457 16.0457 0 0 0 0 1 -3.34525 0 2
273 1 15.1543 15.1543 0.891429 0 0 0 1 -7.02916 0 4
274 1 15.1772 16.9123 2.65633 -5.34518 -2.279 10.4953 1 -7.35053 0.0895772 4
275 1 16.9282 15.1676 2.67947 -9.78789 2.90187 5.88004 1 -7.33872 0.0863919 4
276 1 16.9371 16.9371 0.891429 0 0 0 1 -7.04004 0 4
277 1 14.2807 14.2817 3.5666 3.66989 2.48403 2.59601 1 -7.35281 0.0164182 4
278 1 16.0544 16.0302 3.53429 1.15632 -3.25243 5.39287 1 -7.30019 0.0255185 4
279 1 18.689 13.3168 2.67321 -2.19739 1.5663 1.94108 1 -7.33906 0.00687755 4
280 1 20.5029 13.3714 0.891429 0 0 0 1 -7.01969 0 4
281 1 17.8286 14.2629 0 0 0 0 1 -3.31287 0 2
282 1 17.7939 16.059 1.77846 6.4824 6.64754 3.22445 1 -7.3351 0.0601316 4
283 1 19.5931 14.1909 1.78461 4.89004 1.8557 2.79393 1 -7.30023 0.0218858 4
284 1 19.6114 16.0457 0 0 0 0 1 -3.33073 0 2
285 1 18.72 15.1543 0.891429 0 0 0 1 -6.96583 0 4
286 1 18.7297 16.9231 2.71252 4.54838 2.30596 -4.70482 1 -7.34099 0.0299639 4
287 1 20.5099 15.1124 2.68159 6.95089 -5.96535 -5.18218 1 -7.25912 0.068937 4
288 1 20.5029 16.9371 0.891429 0 0 0 1 -7.05104 0 4
289 1 17.8286 14.2542 3.57801 -6.35917 -2.99469 -0.631487 1 -7.37376 0.0310005 4
290 1 19.6051 16.0141 3.60579 -2.54195 9.29195 2.65649 1 -7.36742 0.0621548 4
293 1 0 17.8286 0 0 0 0 1 -3.33311 0 2
294 1 1.75191 17.8243 1.77787 -1.0328 5.16645 -4.70753 1 -7.29448 0.0310713 4
295 1 1.78286 19.6114 0 0 0 0 1 -3.33812 0 2
296 1 0.891429 18.72 0.891429 0 0 0 1 -7.01674 0 4
297 1 0.91939 20.4869 2.65329 -5.28118 0.347808 -0.240342 1 -7.29783 0.0174712 4
298 1 2.67056 18.7502 2.73069 2.70188 2.80709 5.50037 1 -7.2637 0.0282793 4
299 1 2.67429 20.5029 0.891429 0 0 0 1 -7.03093 0 4
300 1 3.56572 17.8286 0 0 0 0 1 -3.31451 0 2
301 1 3.51312 19.6198 1.76958 0.232294 7.76294 9.44302 1 -7.31999 0.0930451 4
302 1 1.75665 19.6508 3.63829 4.65726 -3.73445 -6.98545 1 -7.35467 0.0525531 4
303 1 3.5551 17.8786 3.62269 -1.99994 6.50325 -0.313718 1 -7.33113 0.0288746 4
305 1 -0.0107853 19.614 1.7692 -9.47238 -0.925177 -7.09885 1 -7.36621 0.0877469 4
27 1 5.37171 21.4017 1.77657 -5.88989 -3.94561 0.876545 1 -7.37187 0.0317606 4
307 1 5.35889 17.7905 1.79461 -3.20358 -2.34016 -8.70231 1 -7.33777 0.056933 4
308 1 5.34857 19.6114 0 0 0 0 1 -3.33334 0 2
309 1 4.45714 18.72 0.891429 0 0 0 1 -6.9604 0 4
310 1 4.47087 20.5053 2.63521 5.30048 4.88845 -5.87805 1 -7.28777 0.053867 4
311 1 6.25557 18.6859 2.6688 5.1422 -0.469135 -0.513038 1 -7.35513 0.0167591 4
312 1 6.24 20.5029 0.891429 0 0 0 1 -7.02698 0 4
313 1 7.13143 17.8286 0 0 0 0 1 -3.32137 0 2
314 1 7.12203 19.575 1.76514 -2.87015 1.16856 2.87677 1 -7.33493 0.0111284 4
315 1 8.02286 18.72 0.891429 0 0 0 1 -7.03483 0 4
316 1 8.04424 20.4668 2.69764 -1.48645 -3.25133 -2.13921 1 -7.33755 0.0108034 4
317 1 5.40733 19.6 3.53452 -4.15953 5.39513 -2.69606 1 -7.36812 0.0334106 4
318 1 7.10997 17.7866 3.5795 2.171 -4.68911 7.40938 1 -7.32467 0.0507899 4
320 1 8.90673 21.3782 1.79021 3.57291 1.92165 -3.22812 1 -7.35334 0.0167303 4
321 1 12.4783 21.3925 1.7725 -2.64213 -5.03416 0.28574 1 -7.35557 0.0201699 4
322 1 8.91303 17.8206 1.78173 -9.21787 -2.19103 -3.9482 1 -7.36489 0.0655776 4
323 1 8.91429 19.6114 0 0 0 0 1 -3.33601 0 2
324 1 9.84069 18.6883 2.65137 -3.94068 0.0167082 -2.96734 1 -7.28619 0.0151463 4
325 1 9.80572 20.5029 0.891429 0 0 0 1 -7.03145 0 4
326 1 10.6971 17.8286 0 0 0 0 1 -3.32595 0 2
327 1 10.6672 19.622 1.75762 -1.35799 -0.101198 -3.15566 1 -7.35957 0.00735245 4
328 1 12.496 17.8215 1.77561 -2.54215 4.19784 -6.13694 1 -7.29614 0.0384325 4
329 1 12.48 19.6114 0 0 0 0 1 -3.3304 0 2
330 1 11.5886 18.72 0.891429 0 0 0 1 -6.98834 0 4
331 1 11.5591 20.4948 2.6716 6.97629 -0.0933765 -6.087 1 -7.33471 0.05336 4
332 1 8.89225 19.5668 3.57485 -0.623957 5.77151 3.39673 1 -7.2977 0.028157 4
333 1 10.7567 17.8415 3.59085 0.225576 5.47738 -3.47669 1 -7.30809 0.026229 4
334 1 12.4944 19.6048 3.54925 -7.32915 1.16125 0.784078 1 -7.31099 0.0346565 4
335 1 16.0508 21.3831 1.76161 0.0290455 0.103287 2.72137 1 -7.3435 0.00461675 4
337 1 13.4096 18.7559 2.68455 -1.47647 3.95849 -4.49879 1 -7.30953 0.0237075 4
338 1 13.3714 20.5029 0.891429 0 0 0 1 -7.04208 0 4
339 1 14.2629 17.8286 0 0 0 0 1 -3.33593 0 2
340 1 14.2768 19.6286 1.76578 -3.73433 -2.25892 -3.88411 1 -7.3873 0.021246 4
341 1 16.0888 17.8329 1.76297 -4.58991 -1.99561 0.829426 1 -7.33112 0.0160198 4
342 1 16.0457 19.6114 0 0 0 0 1 -3.31553 0 2
343 1 15.1543 18.72 0.891429 0 0 0 1 -7.02678 0 4
344 1 15.148 20.4904 2.6599 2.95311 -4.71792 -0.238456 1 -7.3645 0.0193179 4
345 1 16.9756 18.7111 2.69916 -5.82773 2.11833 -0.108208 1 -7.35999 0.0239394 4
346 1 16.9371 20.5029 0.891429 0 0 0 1 -7.01713 0 4
347 1 14.2908 17.7764 3.53093 2.26121 2.19622 -2.01097 1 -7.29888 0.00870179 4
348 1 16.0783 19.6035 3.55864 1.60324 0.844491 -1.03342 1 -7.36308 0.00270849 4
304 1 21.3868 17.8185 3.58548 -5.58503 -6.03744 -1.38683 1 -7.4064 0.0433 4
351 1 17.8286 17.8286 0 0 0 0 1 -3.32763 0 2
352 1 17.8504 19.6058 1.82218 4.19105 1.26592 1.42671 1 -7.29388 0.0131973 4
353 1 19.6105 17.7805 1.77954 -1.40185 5.43227 2.60775 1 -7.30376 0.0238234 4
354 1 19.6114 19.6114 0 0 0 0 1 -3.34337 0 2
355 1 18.72 18.72 0.891429 0 0 0 1 -6.99468 0 4
356 1 18.7529 20.5067 2.73242 -6.07611 4.02103 1.26951 1 -7.30987 0.0340464 4
357 1 20.5042 18.7092 2.72224 -1.01632 5.45953 -5.36964 1 -7.30518 0.0371417 4
358 1 20.5029 20.5029 0.891429 0 0 0 1 -7.05081 0 4
359 1 17.8613 17.791 3.59015 -2.07863 -4.22116 3.86114 1 -7.37092 0.0230592 4
360 1 19.5943 19.5856 3.58567 0.573898 3.53899 2.21453 1 -7.3516 0.011053 4
361 1 0.930673 0.916072 4.42433 -2.63859 2.31171 -2.58402 1 -7.29858 0.0118157 4
362 1 0.911675 2.66793 6.27587 -2.44794 -8.58629 -3.87281 1 -7.36836 0.0589534 4
363 1 2.67682 0.923253 6.26623 -5.04765 -1.57275 -4.96182 1 -7.28501 0.0327222 4
364 1 2.72899 2.76012 4.50805 -5.24983 6.06746 -2.60261 1 -7.25477 0.0442846 4
365 1 3.60874 1.77756 5.38161 -5.16374 2.54725 -2.07052 1 -7.32057 0.0233035 4
366 1 1.76245 3.56229 5.38782 0.551515 -0.173587 4.89019 1 -7.34266 0.0150928 4
367 1 1.77823 1.79792 7.15858 -4.55762 -2.94163 1.67527 1 -7.36187 0.0200618 4
368 1 0.890653 0.897383 8.08253 -9.35156 -2.22361 0.786243 1 -7.29469 0.0578946 4
369 1 2.69105 2.68085 8.05014 -7.00943 5.67404 -2.63182 1 -7.34948 0.0549312 4
370 1 3.55409 3.52643 7.17034 -2.24548 7.8932 -8.75441 1 -7.37097 0.0896198 4
411 1 0.0157896 1.80605 5.34926 -3.0098 -1.00157 -4.94243 1 -7.29661 0.0214673 4
371 1 -0.0203415 3.56403 7.19137 11.4051 -1.3177 -4.53937 1 -7.30461 0.0948694 4
651 1 3.61187 -0.0166052 7.18905 4.13962 4.43873 -4.66754 1 -7.28885 0.0364896 4
710 1 -0.0252421 0.000742512 7.14316 -1.1263 -0.426246 0.342591 1 -7.3365 0.000975717 4
652 1 1.74856 0.0279849 5.35612 -5.11405 3.50807 -6.64383 1 -7.33473 0.0514128 4
372 1 4.45246 0.896734 4.46824 1.16908 2.33577 -7.61858 1 -7.35697 0.0403739 4
373 1 4.43962 2.66543 6.31652 0.308453 -2.49066 -9.51447 1 -7.32883 0.0602656 4
374 1 6.27098 0.879918 6.25516 -1.11529 3.36601 7.3129 1 -7.35637 0.0411127 4
375 1 6.2572 2.62118 4.47953 0.777704 -3.36337 2.08251 1 -7.37385 0.0101169 4
376 1 7.12128 1.75745 5.38371 -12.7615 -5.5596 -5.36526 1 -7.35903 0.138521 4
377 1 8.0446 0.869499 4.4701 0.12436 0.499737 -9.18233 1 -7.36101 0.052645 4
378 1 7.98715 2.67495 6.28867 3.42668 -4.87578 2.4157 1 -7.31774 0.0257379 4
379 1 5.37769 3.55693 5.40571 -0.825588 4.59085 6.24596 1 -7.28315 0.0378245 4
380 1 5.34926 1.74862 7.17898 0.85077 2.73227 3.22564 1 -7.3152 0.0115733 4
381 1 4.473 0.869965 8.05322 -7.17561 0.762607 0.44055 1 -7.2715 0.0325311 4
382 1 6.28987 2.66594 8.06007 -2.98775 4.69601 1.12948 1 -7.29618 0.0200763 4
383 1 7.99874 0.86744 8.06875 0.878173 -5.04933 1.65535 1 -7.32858 0.0180548 4
384 1 7.13131 3.55344 7.19409 -1.03105 -0.428498 3.1657 1 -7.39824 0.00701372 4
665 1 7.09698 -0.0207903 7.14639 5.4003 2.69482 -1.62118 1 -7.37223 0.024308 4
386 1 9.8298 0.898891 6.24967 3.30533 3.21688 -4.07897 1 -7.3206 0.0235972 4
387 1 9.80974 2.67492 4.48275 0.11586 3.02625 3.82562 1 -7.34278 0.0148181 4
388 1 10.7154 1.78103 5.33606 -4.22667 -0.624332 5.80609 1 -7.37207 0.0323445 4
389 1 11.5917 0.892763 4.4398 -3.44353 -0.683399 -0.47542 1 -7.336 0.00781203 4
390 1 11.6123 2.64613 6.25829 -2.23129 -2.27375 1.87341 1 -7.35111 0.00850126 4
391 1 8.8994 3.55723 5.31916 4.19454 4.69323 0.293057 1 -7.32812 0.0247143 4
392 1 12.5168 3.54071 5.37216 1.07073 -0.248498 -1.66558 1 -7.39172 0.00247874 4
393 1 8.87045 1.7326 7.11767 3.77995 -8.55262 -4.61573 1 -7.30375 0.0676828 4
394 1 9.79005 2.64061 8.01926 -4.0602 -0.384584 1.72297 1 -7.25675 0.0122006 4
395 1 12.5147 1.78546 7.17296 4.47062 5.09444 -0.762536 1 -7.3863 0.0289561 4
396 1 11.6482 0.912456 8.06816 3.46728 -6.14175 -1.73203 1 -7.32963 0.0328287 4
397 1 10.6668 3.55271 7.11049 -3.45525 -1.93049 -3.7828 1 -7.29406 0.0186573 4
398 1 13.4108 0.897348 6.26841 2.5079 -0.382142 9.89831 1 -7.33778 0.0649888 4
399 1 13.3834 2.71823 4.45337 4.43744 8.61363 -2.51306 1 -7.22471 0.0623677 4
400 1 14.3283 1.76638 5.38233 -3.24078 -3.1214 -2.90027 1 -7.26997 0.0178371 4
401 1 15.1224 0.85913 4.44387 -4.01745 -3.7403 -2.03287 1 -7.31579 0.0213258 4
402 1 15.2294 2.67261 6.265 -2.89916 2.96686 -1.19774 1 -7.39559 0.0116033 4
403 1 17.0162 0.846301 6.27613 -6.71498 3.76158 2.00202 1 -7.34495 0.0393676 4
404 1 16.9594 2.64921 4.47721 1.38223 -4.87077 3.93173 1 -7.26365 0.0255777 4
405 1 16.0997 3.56189 5.35939 -0.623182 1.71011 -4.76635 1 -7.38587 0.0162023 4
406 1 13.3862 2.67173 8.05996 2.30664 -7.27546 -0.887028 1 -7.29851 0.0367479 4
407 1 16.1142 1.76203 7.18532 2.29373 -6.40149 -2.72922 1 -7.27601 0.0334174 4
408 1 15.1631 0.870307 8.06804 -1.94554 4.62778 -5.40953 1 -7.39589 0.0339001 4
409 1 16.9642 2.6797 8.05068 4.82763 3.78202 0.00107233 1 -7.42098 0.0234093 4
410 1 14.3702 3.53522 7.1344 4.31858 0.109336 -6.97472 1 -7.32154 0.0418948 4
412 1 17.89 1.74366 5.39773 -0.0524952 3.29252 -2.64306 1 -7.31267 0.0110974 4
413 1 18.7026 0.914573 4.45215 -8.36936 -4.16511 -6.73211 1 -7.35445 0.0826057 4
414 1 18.7217 2.69778 6.23912 -1.77423 4.16182 0.861785 1 -7.37281 0.0132025 4
415 1 20.4841 0.894846 6.26065 -1.05545 5.03777 -6.38332 1 -7.35073 0.0418519 4
416 1 20.4968 2.69274 4.49699 2.0152 -0.412792 4.11262 1 -7.34269 0.0131613 4
417 1 19.6121 3.55123 5.35054 -7.12056 0.635505 -9.15725 1 -7.40805 0.0840035 4
418 1 19.6178 1.79246 7.16257 7.32237 -5.78584 -0.863836 1 -7.33312 0.0546734 4
419 1 18.7833 0.902649 8.07421 -6.45022 -2.09358 -1.01955 1 -7.3169 0.0292714 4
420 1 20.4986 2.64671 8.10372 2.23479 1.56679 9.14096 1 -7.29418 0.0566447 4
421 1 17.828 3.54218 7.14813 -2.43095 0.93594 -2.9597 1 -7.35463 0.0096758 4
423 1 0.869299 4.48452 4.46841 -0.0765499 -4.69372 -2.24678 1 -7.35225 0.0168584 4
424 1 0.906916 6.25208 6.27229 -3.23201 0.97096 -5.63074 1 -7.3424 0.0268227 4
425 1 2.659 4.46105 6.27838 1.02744 1.50962 -13.3017 1 -7.28558 0.112204 4
426 1 2.65409 6.23887 4.48833 0.125282 -13.0204 1.92438 1 -7.30121 0.107835 4
427 1 3.57847 5.32901 5.40561 -1.53348 1.15908 2.87517 1 -7.32387 0.00744525 4
428 1 1.78733 7.11873 5.35777 -4.57058 0.214873 -2.69719 1 -7.35036 0.0175594 4
429 1 0.888581 8.01643 4.49132 1.88924 -1.02053 -13.4706 1 -7.33034 0.115814 4
430 1 2.70739 8.00971 6.26643 1.90741 -9.2529 -7.6923 1 -7.31441 0.0923841 4
431 1 1.7933 5.38448 7.19748 8.61988 2.07489 2.84722 1 -7.35212 0.0539731 4
432 1 0.910104 4.46333 8.07047 -3.51605 -6.05563 2.91679 1 -7.3476 0.035815 4
433 1 2.65498 6.27575 8.08921 -5.73343 -1.89947 5.40329 1 -7.37773 0.0408783 4