ITEM: TIMESTEP
49126175
ITEM: NUMBER OF ATOMS
3060
ITEM: BOX BOUNDS pp pp mm
0.0000000000000000e+00 2.1394294200000001e+01
0.0000000000000000e+00 2.1394294200000001e+01
-5.3491084073550004e-03 5.3485735499999997e+01
ITEM: ATOMS id type x y z vx vy vz c_clusts c_atom_pe c_atom_ke c_atom_coord
1 1 0 0 0 0 0 0 1 -3.32328 0 2
2 1 1.78286 1.78286 0 0 0 0 1 -3.35512 0 2
3 1 0.891429 0.891429 0.891429 0 0 0 1 -7.01975 0 4
4 1 0.900531 2.67242 2.65291 -1.76035 -4.30739 4.95437 1 -7.33938 0.028755 4
5 1 2.66624 0.920016 2.68758 -6.16794 -3.07156 -7.97141 1 -7.28544 0.0691026 4
6 1 2.67429 2.67429 0.891429 0 0 0 1 -6.98617 0 4
7 1 3.56572 0 0 0 0 0 1 -3.35081 0 2
8 1 3.59794 1.83302 1.81344 -2.88804 3.74885 -7.42293 1 -7.32363 0.0482346 4
9 1 0 3.56572 0 0 0 0 1 -3.35258 0 2
10 1 1.79373 3.57871 1.77292 -4.20583 -0.574475 -9.36637 1 -7.38137 0.0658203 4
11 1 3.56572 3.56572 0 0 0 0 1 -3.32829 0 2
12 1 1.73006 1.72088 3.57573 0.54171 -0.596873 -1.89548 1 -7.30497 0.00264069 4
13 1 3.53202 3.61479 3.54042 -4.32778 -0.487069 -4.2699 1 -7.3671 0.0231536 4
292 1 1.79587 0.00968006 1.77892 5.33631 -0.933388 -3.27153 1 -7.35805 0.0249284 4
56 1 0.0247042 3.53611 3.54858 2.85315 8.42669 -2.05632 1 -7.30897 0.0518966 4
55 1 0.0186369 1.75133 1.78044 -0.710946 6.8053 -4.58448 1 -7.33725 0.0422222 4
291 1 3.58439 0.0120279 3.58604 -5.38858 -4.26701 1.85758 1 -7.30906 0.0315537 4
350 1 -0.0315075 -0.0403767 3.596 4.70129 0.836157 -3.63528 1 -7.34564 0.0224177 4
14 1 5.34857 1.78286 0 0 0 0 1 -3.32543 0 2
15 1 4.45714 0.891429 0.891429 0 0 0 1 -6.96704 0 4
16 1 4.46912 2.73476 2.6697 -2.68399 5.3933 2.101 1 -7.33582 0.0253363 4
17 1 6.18911 0.899242 2.67523 2.91114 8.00606 -3.44567 1 -7.34065 0.0525603 4
18 1 6.24 2.67429 0.891429 0 0 0 1 -6.99625 0 4
19 1 7.13143 0 0 0 0 0 1 -3.34397 0 2
20 1 7.15501 1.7666 1.74996 -4.38882 -1.50078 2.95033 1 -7.27961 0.0188088 4
21 1 8.02286 0.891429 0.891429 0 0 0 1 -7.06845 0 4
22 1 7.97924 2.69711 2.70229 0.11265 7.6564 -1.28546 1 -7.31588 0.0375233 4
23 1 5.36073 3.58056 1.78972 -1.5876 1.14519 8.17896 1 -7.39052 0.0440225 4
24 1 7.13143 3.56572 0 0 0 0 1 -3.32825 0 2
25 1 5.36344 1.81689 3.53756 1.90299 4.34085 7.21393 1 -7.34889 0.0463739 4
26 1 7.14316 3.57128 3.61936 -10.2673 -1.99274 -1.91205 1 -7.34935 0.0703623 4
306 1 7.10279 0.0053682 3.55192 -4.37805 1.91947 4.54664 1 -7.30241 0.0270902 4
28 1 8.91429 1.78286 0 0 0 0 1 -3.34475 0 2
29 1 9.85761 0.912266 2.64761 3.72071 -4.82936 0.086916 1 -7.29293 0.0231381 4
30 1 9.80572 2.67429 0.891429 0 0 0 1 -7.02474 0 4
31 1 10.6971 0 0 0 0 0 1 -3.34063 0 2
32 1 10.7139 1.7776 1.79266 -0.636272 2.16134 -7.12305 1 -7.35577 0.0347401 4
33 1 12.48 1.78286 0 0 0 0 1 -3.32494 0 2
34 1 11.5886 0.891429 0.891429 0 0 0 1 -7.01256 0 4
35 1 11.5963 2.67125 2.70784 -6.56125 2.11348 0.86001 1 -7.34704 0.030036 4
36 1 8.93017 3.57007 1.80656 0.771888 -5.57855 4.25531 1 -7.30967 0.0310116 4
37 1 10.6971 3.56572 0 0 0 0 1 -3.33951 0 2
38 1 12.4895 3.56039 1.77609 -1.39587 -4.64007 -8.11635 1 -7.37951 0.0556162 4
39 1 8.889 1.77267 3.5749 -5.58849 -5.68824 3.96517 1 -7.22772 0.0493646 4
40 1 12.4658 1.75041 3.58826 3.84465 -3.41795 -2.79858 1 -7.3968 0.0213466 4
41 1 10.6899 3.55142 3.56152 3.60995 8.43457 1.30578 1 -7.3707 0.0534532 4
319 1 10.7254 0.0549658 3.57645 -0.596161 0.491093 -0.0995955 1 -7.3559 0.000377501 4
42 1 13.3687 0.894488 2.70123 -1.90428 6.75937 7.34798 1 -7.3603 0.0643017 4
43 1 13.3714 2.67429 0.891429 0 0 0 1 -7.02525 0 4
44 1 14.2629 0 0 0 0 0 1 -3.31467 0 2
45 1 14.2605 1.76422 1.77464 6.07306 0.690874 7.93039 1 -7.29882 0.0623985 4
46 1 16.0457 1.78286 0 0 0 0 1 -3.31287 0 2
47 1 15.1543 0.891429 0.891429 0 0 0 1 -7.03101 0 4
48 1 15.2053 2.67271 2.69523 -4.86067 4.75834 -1.15827 1 -7.29683 0.0296334 4
49 1 16.9447 0.841033 2.68174 -7.47699 3.66409 -3.60747 1 -7.34312 0.0512536 4
50 1 16.9371 2.67429 0.891429 0 0 0 1 -7.00604 0 4
51 1 14.2629 3.56572 0 0 0 0 1 -3.33686 0 2
52 1 16.0342 3.56459 1.76982 -6.86268 5.46776 -1.92617 1 -7.34872 0.0502317 4
53 1 16.0848 1.77186 3.54346 -4.99684 2.47001 2.42485 1 -7.33557 0.0229982 4
54 1 14.2777 3.57526 3.56681 -5.59435 -6.32738 1.88955 1 -7.33455 0.0466215 4
336 1 14.3048 0.00135505 3.54873 6.9672 6.31989 -1.91228 1 -7.34832 0.0573502 4
57 1 17.8286 0 0 0 0 0 1 -3.32419 0 2
58 1 17.7971 1.73362 1.76907 -10.1073 5.34909 1.82084 1 -7.32741 0.0834582 4
59 1 19.6114 1.78286 0 0 0 0 1 -3.33485 0 2
60 1 18.72 0.891429 0.891429 0 0 0 1 -7.03852 0 4
61 1 18.6735 2.65362 2.67221 -1.8414 -2.49909 -1.45877 1 -7.33881 0.00732236 4
62 1 20.5034 0.862897 2.66259 -1.87041 1.4024 -0.117045 1 -7.37987 0.00341018 4
63 1 20.5029 2.67429 0.891429 0 0 0 1 -6.97871 0 4
64 1 17.8286 3.56572 0 0 0 0 1 -3.34006 0 2
65 1 19.6061 3.55447 1.81579 1.37069 0.390619 2.04782 1 -7.36092 0.00387457 4
66 1 19.5777 1.75911 3.54832 -6.99542 1.73616 -2.31631 1 -7.36966 0.0356747 4
67 1 17.7697 3.55109 3.54626 -3.82076 3.56464 -8.81415 1 -7.38372 0.0653511 4
68 1 19.6238 0.0193087 1.76133 -2.20862 2.27498 -2.1201 1 -7.36382 0.00905528 4
349 1 17.8455 -0.0518629 3.57531 4.58418 -3.56505 0.0739207 1 -7.30501 0.0209943 4
69 1 1.78286 5.34857 0 0 0 0 1 -3.34347 0 2
70 1 0.891429 4.45714 0.891429 0 0 0 1 -6.99017 0 4
71 1 0.889258 6.24831 2.69963 8.81354 -9.25411 -4.18486 1 -7.34197 0.112553 4
72 1 2.66963 4.47717 2.66338 -6.69837 3.53688 3.6557 1 -7.38025 0.0440315 4
73 1 2.67429 6.24 0.891429 0 0 0 1 -7.02318 0 4
74 1 3.55843 5.40854 1.77622 -2.22023 0.167472 -0.741624 1 -7.31625 0.003428 4
75 1 0 7.13143 0 0 0 0 1 -3.34877 0 2
76 1 1.77515 7.14673 1.78723 -7.43876 -5.8059 -10.6162 1 -7.33366 0.125572 4
77 1 0.891429 8.02286 0.891429 0 0 0 1 -7.04647 0 4
78 1 2.69484 8.0008 2.69046 3.85478 7.18884 -4.6815 1 -7.34564 0.0550568 4
79 1 3.56572 7.13143 0 0 0 0 1 -3.32157 0 2
80 1 1.77257 5.33014 3.5713 -5.12095 3.96177 -4.17451 1 -7.31699 0.0369387 4
81 1 3.5626 7.12517 3.55313 2.30985 6.99175 -2.88371 1 -7.3819 0.0389239 4
128 1 0.0126513 5.35743 1.82905 -8.87879 -3.39217 -5.55302 1 -7.3241 0.075423 4
82 1 0.0156887 7.11831 3.57224 4.30955 2.67289 1.29492 1 -7.38035 0.0170504 4
83 1 5.34857 5.34857 0 0 0 0 1 -3.31873 0 2
84 1 4.45714 4.45714 0.891429 0 0 0 1 -6.9774 0 4
85 1 4.48725 6.2281 2.67964 1.32349 -10.686 2.24954 1 -7.34043 0.0753156 4
86 1 6.23256 4.41988 2.712 0.722803 8.21013 5.68766 1 -7.34426 0.0624157 4
87 1 6.24 6.24 0.891429 0 0 0 1 -6.97937 0 4
88 1 7.11906 5.32786 1.83159 -2.91998 8.36124 -6.45578 1 -7.32348 0.0747619 4
89 1 8.02286 4.45714 0.891429 0 0 0 1 -6.97057 0 4
90 1 7.98126 6.25952 2.71137 0.386604 2.39515 -5.10734 1 -7.34583 0.0198997 4
91 1 5.36468 7.13545 1.77641 -4.99328 -2.2943 -0.750284 1 -7.33599 0.0191456 4
92 1 4.45714 8.02286 0.891429 0 0 0 1 -7.01768 0 4
93 1 6.27293 8.04578 2.6763 1.71365 -0.0911018 -4.18348 1 -7.27832 0.0127264 4
94 1 7.13143 7.13143 0 0 0 0 1 -3.36592 0 2
95 1 8.02286 8.02286 0.891429 0 0 0 1 -7.02529 0 4
96 1 5.33136 5.3159 3.61657 4.11988 -0.300189 0.751553 1 -7.31014 0.0109724 4
97 1 7.13005 7.09896 3.58189 -1.13154 -8.24595 6.8687 1 -7.33046 0.0724847 4
98 1 8.91429 5.34857 0 0 0 0 1 -3.35171 0 2
99 1 9.79886 4.47901 2.6939 -1.68098 2.96274 -0.400135 1 -7.37611 0.00732197 4
100 1 9.80572 6.24 0.891429 0 0 0 1 -6.99868 0 4
101 1 10.7239 5.34646 1.80367 5.53388 -1.46737 -3.75595 1 -7.34208 0.0291819 4
102 1 12.48 5.34857 0 0 0 0 1 -3.33765 0 2
103 1 11.5886 4.45714 0.891429 0 0 0 1 -7.04397 0 4
104 1 11.6051 6.29336 2.6627 6.4018 4.55724 -1.30224 1 -7.38954 0.0394912 4
105 1 8.92458 7.1434 1.77107 -3.34754 -7.40394 -3.62847 1 -7.31989 0.04929 4
106 1 9.8024 8.01092 2.71692 -1.46663 -5.5973 -8.10007 1 -7.32784 0.0616773 4
107 1 10.6971 7.13143 0 0 0 0 1 -3.32228 0 2
108 1 12.4714 7.13824 1.79276 4.98878 -1.3598 1.10807 1 -7.36915 0.017406 4
109 1 11.5886 8.02286 0.891429 0 0 0 1 -6.98009 0 4
110 1 8.90662 5.40637 3.58176 -6.17422 -3.70272 -1.5943 1 -7.27125 0.0338431 4
111 1 12.4735 5.41116 3.54855 0.882333 7.27507 -5.42343 1 -7.23649 0.0517352 4
112 1 10.6962 7.13833 3.61356 -1.92089 -1.20273 0.753575 1 -7.38466 0.00355049 4
113 1 13.3943 4.41087 2.6724 0.402111 -6.71209 3.86094 1 -7.28858 0.0374207 4
114 1 13.3714 6.24 0.891429 0 0 0 1 -7.01685 0 4
115 1 14.2594 5.3572 1.82099 -4.7148 4.01622 -9.83772 1 -7.2375 0.0841148 4
116 1 16.0457 5.34857 0 0 0 0 1 -3.33833 0 2
117 1 15.1543 4.45714 0.891429 0 0 0 1 -6.98556 0 4
118 1 15.2161 6.26997 2.67791 3.53989 3.32733 4.61379 1 -7.21046 0.0279401 4
119 1 16.9299 4.45234 2.64196 -0.191257 -5.96678 0.250216 1 -7.33319 0.0222216 4
120 1 16.9371 6.24 0.891429 0 0 0 1 -7.02796 0 4
121 1 13.3555 8.08569 2.66094 2.13768 -2.75949 -4.92027 1 -7.36458 0.0226523 4
122 1 14.2629 7.13143 0 0 0 0 1 -3.35329 0 2
123 1 16.0771 7.14851 1.75193 2.7212 -4.50528 -4.58589 1 -7.35859 0.0303326 4
124 1 15.1543 8.02286 0.891429 0 0 0 1 -7.03469 0 4
125 1 16.9154 8.0568 2.70858 -1.42327 -0.869234 3.26527 1 -7.28007 0.00836742 4
126 1 16.0198 5.31761 3.6038 -4.88295 -0.350476 -1.37965 1 -7.30087 0.0161018 4
127 1 14.2329 7.17495 3.56407 6.96079 -2.2541 3.06755 1 -7.20365 0.0391777 4
129 1 17.8093 5.32993 1.79049 -3.10484 0.123048 -12.0525 1 -7.41457 0.0964252 4
130 1 19.6114 5.34857 0 0 0 0 1 -3.34178 0 2
131 1 18.72 4.45714 0.891429 0 0 0 1 -6.99172 0 4
132 1 18.6701 6.22406 2.64816 -3.83429 1.18293 -4.93571 1 -7.37884 0.0251848 4
133 1 20.4914 4.43051 2.68975 -2.71681 1.93562 0.0494905 1 -7.29508 0.00692769 4
134 1 20.5029 6.24 0.891429 0 0 0 1 -6.96059 0 4
135 1 17.8286 7.13143 0 0 0 0 1 -3.31703 0 2
136 1 19.5607 7.11711 1.7808 -1.79438 -4.98645 5.44984 1 -7.34456 0.0359671 4
137 1 18.72 8.02286 0.891429 0 0 0 1 -7.04719 0 4
138 1 20.5026 8.00803 2.6456 0.0692448 6.26075 -5.67177 1 -7.34663 0.044423 4
139 1 19.5725 5.34156 3.59579 5.18913 2.90739 2.39316 1 -7.2602 0.0255862 4
140 1 17.823 7.12131 3.57401 1.76693 11.8281 0.0053934 1 -7.35552 0.0890229 4
141 1 1.78286 8.91429 0 0 0 0 1 -3.34084 0 2
142 1 0.869566 9.79419 2.62142 -2.34881 -3.6085 -2.30828 1 -7.32987 0.014855 4
143 1 2.67429 9.80572 0.891429 0 0 0 1 -7.01051 0 4
144 1 3.54667 8.92217 1.76241 3.34891 -4.36435 3.02049 1 -7.31742 0.024515 4
145 1 0 10.6971 0 0 0 0 1 -3.34816 0 2
146 1 1.78565 10.7048 1.82015 0.0873802 6.15686 -0.274092 1 -7.34042 0.0236458 4
147 1 1.78286 12.48 0 0 0 0 1 -3.32797 0 2
148 1 0.891429 11.5886 0.891429 0 0 0 1 -6.99223 0 4
149 1 2.6402 11.6127 2.69406 3.70882 -1.22362 6.5258 1 -7.34624 0.0360003 4
150 1 3.56572 10.6971 0 0 0 0 1 -3.34196 0 2
151 1 3.59115 12.4973 1.78319 -1.30948 -8.31926 3.0807 1 -7.30034 0.0500527 4
152 1 1.78206 8.89028 3.56156 -3.03092 2.74495 7.70454 1 -7.30553 0.047355 4
153 1 1.73031 12.4753 3.55116 1.5734 -0.73388 0.27804 1 -7.33854 0.00192422 4
154 1 3.5488 10.7055 3.5424 0.889267 -1.87393 -3.88877 1 -7.32871 0.0120906 4
205 1 0.021523 8.88733 1.77539 7.79864 -5.71945 -1.6322 1 -7.37868 0.0598743 4
204 1 0.0274687 12.5029 1.75508 12.8013 -1.76385 -1.01066 1 -7.30592 0.104571 4
155 1 5.34857 8.91429 0 0 0 0 1 -3.33034 0 2
156 1 4.43991 9.83831 2.65462 2.01111 4.22743 -2.89197 1 -7.34123 0.0188466 4
157 1 6.24 9.80572 0.891429 0 0 0 1 -6.92849 0 4
158 1 7.21801 8.94616 1.78452 1.74683 2.8717 4.86555 1 -7.30169 0.0217673 4
159 1 8.03689 9.85402 2.69778 9.45174 1.64415 -2.72086 1 -7.35259 0.0618952 4
160 1 5.29185 10.7151 1.77411 3.57044 3.19294 0.937694 1 -7.35752 0.0148276 4
161 1 5.34857 12.48 0 0 0 0 1 -3.32188 0 2
162 1 4.45714 11.5886 0.891429 0 0 0 1 -7.04448 0 4
163 1 6.21419 11.5782 2.62664 3.94484 0.0377197 -4.01978 1 -7.34363 0.0197445 4
164 1 7.13143 10.6971 0 0 0 0 1 -3.30549 0 2
165 1 7.12192 12.4594 1.75462 0.783363 -4.49618 5.07673 1 -7.33849 0.0290066 4
166 1 8.02286 11.5886 0.891429 0 0 0 1 -7.03913 0 4
167 1 5.34223 8.87459 3.53652 3.9951 2.32688 7.72102 1 -7.29077 0.0504099 4
168 1 5.33623 12.4869 3.54765 -2.79562 -1.64773 1.45983 1 -7.35472 0.00788093 4
169 1 7.12504 10.6891 3.55335 -1.44964 -0.0564368 10.1132 1 -7.31873 0.0649701 4
170 1 8.91429 8.91429 0 0 0 0 1 -3.30129 0 2
171 1 9.80572 9.80572 0.891429 0 0 0 1 -6.97929 0 4
172 1 10.6704 8.90793 1.80339 -16.3492 0.379014 -3.87454 1 -7.33379 0.175805 4
173 1 12.48 8.91429 0 0 0 0 1 -3.36013 0 2
174 1 11.5906 9.83599 2.67769 -5.53856 -1.44483 -0.207574 1 -7.31192 0.0204195 4
175 1 8.86916 10.7388 1.78173 -4.07851 -1.94089 0.444696 1 -7.3298 0.0128214 4
176 1 8.91429 12.48 0 0 0 0 1 -3.3469 0 2
177 1 9.78621 11.6139 2.67277 -5.66163 -0.930537 1.90906 1 -7.33483 0.0227587 4
178 1 10.6971 10.6971 0 0 0 0 1 -3.33865 0 2
179 1 10.656 12.5106 1.79958 0.160981 -8.66626 -1.72656 1 -7.32533 0.0486183 4
180 1 12.4935 10.7108 1.77502 -0.0229141 -2.1656 -1.36354 1 -7.37601 0.00407664 4
181 1 12.48 12.48 0 0 0 0 1 -3.32387 0 2
182 1 11.5886 11.5886 0.891429 0 0 0 1 -6.96805 0 4
183 1 8.9089 8.92604 3.60495 -3.53393 -5.29683 7.10618 1 -7.34492 0.0566675 4
184 1 12.4976 8.95706 3.56422 -3.73182 0.32036 1.4778 1 -7.31532 0.0100914 4
185 1 8.897 12.4779 3.55976 -7.79631 0.0671 1.37198 1 -7.33169 0.039007 4
186 1 10.7043 10.7165 3.58494 -3.2956 -0.399915 -0.116572 1 -7.3473 0.00686818 4
187 1 12.4426 12.4941 3.55617 -3.0067 6.14472 7.04675 1 -7.37695 0.0600359 4
188 1 13.3714 9.80572 0.891429 0 0 0 1 -7.01248 0 4
189 1 14.2861 8.95963 1.78055 1.22356 0.453605 3.6473 1 -7.38786 0.00933991 4
190 1 16.0457 8.91429 0 0 0 0 1 -3.31455 0 2
191 1 15.1249 9.84615 2.67475 -2.13706 -3.56411 3.56614 1 -7.34119 0.0186649 4
192 1 16.9371 9.80572 0.891429 0 0 0 1 -7.01001 0 4
193 1 13.3461 11.6 2.6755 -5.99513 -3.29849 -3.36196 1 -7.36145 0.0361782 4
194 1 14.2629 10.6971 0 0 0 0 1 -3.33322 0 2
195 1 14.2828 12.4539 1.77307 -5.88344 -1.92114 -4.53066 1 -7.30499 0.0366189 4
196 1 16.0869 10.7554 1.77152 -5.5796 0.720846 -2.89725 1 -7.3034 0.0249254 4
197 1 16.0457 12.48 0 0 0 0 1 -3.33159 0 2
198 1 15.1543 11.5886 0.891429 0 0 0 1 -7.02737 0 4
199 1 16.9444 11.6229 2.66994 6.1827 -0.199481 3.20209 1 -7.41372 0.0301995 4
200 1 16.0665 8.95981 3.55004 0.540165 -4.84558 13.3128 1 -7.34515 0.125109 4
201 1 14.2555 10.7544 3.54482 5.46844 0.626479 4.48083 1 -7.26331 0.0313542 4
202 1 16.0759 12.4772 3.5512 9.44865 9.1498 -6.09536 1 -7.34981 0.130802 4
203 1 21.3678 10.6639 3.54702 2.54272 -4.14967 -5.58584 1 -7.28206 0.034163 4
206 1 17.8352 8.8932 1.77303 -3.4811 3.6946 1.17257 1 -7.31745 0.0168945 4
207 1 19.6114 8.91429 0 0 0 0 1 -3.33837 0 2
208 1 18.6689 9.74324 2.66263 1.78771 3.80892 -7.5274 1 -7.2912 0.0462871 4
209 1 20.5029 9.80572 0.891429 0 0 0 1 -7.00024 0 4
210 1 17.8286 10.6971 0 0 0 0 1 -3.31204 0 2
211 1 17.8442 12.5492 1.81317 0.449665 9.00945 -3.56138 1 -7.30348 0.0585428 4
212 1 19.6232 10.6542 1.74488 2.62626 -2.41712 -4.37438 1 -7.27184 0.0198398 4
213 1 19.6114 12.48 0 0 0 0 1 -3.32136 0 2
214 1 18.72 11.5886 0.891429 0 0 0 1 -6.93863 0 4
215 1 20.4905 11.567 2.66825 -2.4902 7.23858 0.506646 1 -7.29309 0.0366328 4
216 1 19.6063 8.88497 3.52914 -0.0301732 6.79198 -3.82792 1 -7.32393 0.0378341 4
217 1 17.8644 10.7169 3.5265 2.08541 3.51203 -4.17945 1 -7.33593 0.0212565 4
218 1 19.6367 12.4674 3.57094 -0.950755 0.11096 2.28336 1 -7.37828 0.00381546 4
219 1 0.875757 13.4023 2.67827 -2.79677 4.50289 8.24298 1 -7.32286 0.0597807 4
220 1 2.67429 13.3714 0.891429 0 0 0 1 -7.02215 0 4
221 1 0 14.2629 0 0 0 0 1 -3.30145 0 2
222 1 1.78312 14.256 1.76239 4.47322 -4.05146 -1.2974 1 -7.34245 0.0237189 4
223 1 1.78286 16.0457 0 0 0 0 1 -3.31691 0 2
224 1 0.891429 15.1543 0.891429 0 0 0 1 -7.03882 0 4
225 1 0.88329 16.9179 2.6583 -1.32402 0.381032 -0.480192 1 -7.34022 0.00132501 4
226 1 2.66329 15.1734 2.67534 2.14471 0.330006 2.68356 1 -7.35816 0.00741321 4
227 1 2.67429 16.9371 0.891429 0 0 0 1 -6.99828 0 4
228 1 3.56572 14.2629 0 0 0 0 1 -3.31163 0 2
229 1 3.53826 16.0506 1.74383 -4.03297 14.8192 -7.11053 1 -7.35771 0.178283 4
230 1 1.78437 16.0223 3.54414 -4.40241 3.91665 -0.277938 1 -7.37827 0.0216595 4
231 1 3.53449 14.264 3.54327 -9.93334 -8.03075 -2.57498 1 -7.36803 0.105685 4
233 1 0.00165081 16.0259 1.74474 5.61077 3.34795 0.886365 1 -7.35799 0.0270601 4
232 1 0.0165943 14.2679 3.63888 -6.04988 -0.749659 1.74969 1 -7.34947 0.0250367 4
234 1 4.44447 13.4058 2.69457 9.04832 0.415246 3.84032 1 -7.35174 0.0602462 4
235 1 6.24 13.3714 0.891429 0 0 0 1 -7.01333 0 4
236 1 8.0356 13.3598 2.68464 0.949173 -4.40606 -1.26447 1 -7.3407 0.0136393 4
237 1 5.33343 14.2719 1.75953 -2.00577 -2.13716 -0.833841 1 -7.3913 0.00577977 4
238 1 5.34857 16.0457 0 0 0 0 1 -3.34458 0 2
239 1 4.45714 15.1543 0.891429 0 0 0 1 -7.03844 0 4
240 1 4.45845 16.9531 2.64327 5.52227 -4.74071 -1.4021 1 -7.30827 0.0341934 4
241 1 6.26216 15.1295 2.64635 -8.40726 -1.4322 -2.56708 1 -7.31901 0.0493728 4
242 1 6.24 16.9371 0.891429 0 0 0 1 -7.00532 0 4
243 1 7.13143 14.2629 0 0 0 0 1 -3.33435 0 2
244 1 7.16505 16.0617 1.78069 -3.33229 1.47376 -4.0419 1 -7.30961 0.018432 4
245 1 8.02286 15.1543 0.891429 0 0 0 1 -6.97682 0 4
246 1 8.04168 16.9398 2.69258 5.30647 6.61637 1.89985 1 -7.41471 0.0470208 4
247 1 5.40835 16.0683 3.5162 5.96774 1.05946 4.61225 1 -7.26931 0.0361065 4
248 1 7.14019 14.2467 3.53942 6.88253 -4.89476 -3.36788 1 -7.3894 0.0514563 4
249 1 9.80572 13.3714 0.891429 0 0 0 1 -7.0344 0 4
250 1 11.576 13.4 2.6474 1.48957 -12.6662 -1.10804 1 -7.38425 0.102003 4
251 1 8.93636 14.225 1.77474 6.83542 4.71018 -0.204323 1 -7.29318 0.0429167 4
252 1 8.91429 16.0457 0 0 0 0 1 -3.32553 0 2
253 1 9.79694 15.1783 2.68383 2.25588 12.0805 -1.68153 1 -7.34905 0.0957641 4
254 1 9.80572 16.9371 0.891429 0 0 0 1 -7.02991 0 4
255 1 10.6971 14.2629 0 0 0 0 1 -3.35474 0 2
256 1 10.6919 16.06 1.78142 -9.40072 -0.691429 -2.14305 1 -7.35338 0.0581622 4
257 1 12.4695 14.3012 1.77241 -0.125521 1.38086 5.47583 1 -7.36192 0.0198599 4
258 1 12.48 16.0457 0 0 0 0 1 -3.32208 0 2
259 1 11.5886 15.1543 0.891429 0 0 0 1 -7.0128 0 4
260 1 11.6197 16.9385 2.63956 -4.47695 0.328689 2.79515 1 -7.37578 0.0174055 4
261 1 8.88982 16.041 3.5551 -5.51287 -0.0857782 -1.77388 1 -7.44647 0.0208798 4
262 1 10.6743 14.2902 3.50128 4.47586 -1.99828 -6.11247 1 -7.25724 0.03821 4
263 1 12.4755 16.083 3.52517 4.7754 5.14364 7.57879 1 -7.26558 0.0664126 4
264 1 13.3714 13.3714 0.891429 0 0 0 1 -6.95951 0 4
265 1 15.147 13.3995 2.68359 3.25767 2.97868 2.39286 1 -7.33719 0.0156918 4
266 1 16.9371 13.3714 0.891429 0 0 0 1 -7.03132 0 4
267 1 13.3831 15.1624 2.66017 -1.15017 5.16978 4.4836 1 -7.38668 0.0299712 4
268 1 13.3714 16.9371 0.891429 0 0 0 1 -7.021 0 4
269 1 14.2629 14.2629 0 0 0 0 1 -3.30824 0 2
270 1 14.2694 16.0294 1.744 -6.58993 -0.471916 4.91282 1 -7.31781 0.0421916 4
271 1 16.0462 14.2351 1.76604 0.0963559 0.376655 -2.44226 1 -7.31089 0.00380663 4
272 1 16.0457 16.0457 0 0 0 0 1 -3.34076 0 2
273 1 15.1543 15.1543 0.891429 0 0 0 1 -7.03249 0 4
274 1 15.1656 16.9822 2.66612 0.49847 4.06835 -2.08396 1 -7.30475 0.0131599 4
275 1 16.9475 15.1486 2.69776 0.674989 2.47254 -5.11351 1 -7.30218 0.0203639 4
276 1 16.9371 16.9371 0.891429 0 0 0 1 -7.06625 0 4
277 1 14.2741 14.2678 3.53565 4.91304 2.56506 -3.677 1 -7.364 0.0275348 4
278 1 16.0332 16.0605 3.56941 5.13861 -1.4944 -10.5976 1 -7.30606 0.0877291 4
279 1 18.7596 13.3939 2.66738 1.50107 -2.47552 0.806042 1 -7.37158 0.00562119 4
280 1 20.5029 13.3714 0.891429 0 0 0 1 -7.00967 0 4
281 1 17.8286 14.2629 0 0 0 0 1 -3.32551 0 2
282 1 17.7939 16.059 1.77846 6.4824 6.64754 3.22445 1 -7.33564 0.0601316 4
283 1 19.6071 14.2886 1.75908 4.65729 -6.08816 2.46704 1 -7.32699 0.0403596 4
284 1 19.6114 16.0457 0 0 0 0 1 -3.31367 0 2
285 1 18.72 15.1543 0.891429 0 0 0 1 -7.01793 0 4
286 1 18.6892 16.9267 2.67443 2.74778 1.99656 1.99854 1 -7.37496 0.00966672 4
287 1 20.5215 15.2038 2.69523 2.45322 -6.36593 6.83384 1 -7.245 0.058038 4
288 1 20.5029 16.9371 0.891429 0 0 0 1 -7.03828 0 4
289 1 17.8713 14.2669 3.58928 5.55465 2.71897 -1.56842 1 -7.37118 0.025337 4
290 1 19.6055 16.0248 3.54176 -8.07584 8.23208 7.01249 1 -7.33478 0.113382 4
293 1 0 17.8286 0 0 0 0 1 -3.34312 0 2
294 1 1.75191 17.8243 1.77787 -1.0328 5.16645 -4.70753 1 -7.33907 0.0310713 4
295 1 1.78286 19.6114 0 0 0 0 1 -3.33353 0 2
296 1 0.891429 18.72 0.891429 0 0 0 1 -7.01099 0 4
297 1 0.899815 20.509 2.67993 7.1055 -3.19469 1.37961 1 -7.33027 0.0389623 4
298 1 2.63994 18.6841 2.57373 2.98685 -0.270661 7.68101 1 -7.24685 0.0423203 4
299 1 2.67429 20.5029 0.891429 0 0 0 1 -7.03008 0 4
300 1 3.56572 17.8286 0 0 0 0 1 -3.33304 0 2
301 1 3.51312 19.6198 1.76958 0.232294 7.76294 9.44302 1 -7.35119 0.0930451 4
302 1 1.77187 19.6214 3.5448 4.71377 1.8756 2.08924 1 -7.30746 0.0187366 4
303 1 3.5461 17.7977 3.5055 -6.52041 -0.0445787 6.18072 1 -7.34578 0.0502416 4
305 1 0.0182065 19.6259 1.78483 0.817522 -0.305329 -2.26465 1 -7.32061 0.00366623 4
27 1 5.34354 21.3771 1.78541 -4.03636 -2.02458 6.58483 1 -7.31728 0.0396804 4
307 1 5.35279 17.844 1.80902 -0.379381 -1.60477 3.91283 1 -7.32158 0.011222 4
308 1 5.34857 19.6114 0 0 0 0 1 -3.33402 0 2
309 1 4.45714 18.72 0.891429 0 0 0 1 -6.96439 0 4
310 1 4.38894 20.4992 2.70356 1.77092 -0.0806758 -1.16116 1 -7.30911 0.0027953 4
311 1 6.21779 18.77 2.68614 0.246201 5.34757 1.33835 1 -7.36203 0.0189518 4
312 1 6.24 20.5029 0.891429 0 0 0 1 -7.04323 0 4
313 1 7.13143 17.8286 0 0 0 0 1 -3.31833 0 2
314 1 7.12347 19.6206 1.77016 -4.67459 2.55417 0.149984 1 -7.32659 0.0176757 4
315 1 8.02286 18.72 0.891429 0 0 0 1 -7.03806 0 4
316 1 8.01661 20.5347 2.71508 3.47479 2.80925 1.74416 1 -7.35614 0.0143209 4
317 1 5.31487 19.6078 3.61725 -0.708421 -0.692708 2.90207 1 -7.34789 0.00585312 4
318 1 7.13494 17.8412 3.51524 -10.3354 2.02425 4.26355 1 -7.29228 0.0803532 4
320 1 8.89438 21.4172 1.8046 6.25613 3.30895 1.43047 1 -7.33376 0.0324499 4
321 1 12.4916 21.3944 1.76518 0.886246 2.09723 4.8843 1 -7.29004 0.0180754 4
322 1 8.91303 17.8206 1.78173 -9.21787 -2.19103 -3.9482 1 -7.3464 0.0655776 4
323 1 8.91429 19.6114 0 0 0 0 1 -3.32917 0 2
324 1 9.79541 18.7335 2.65999 3.44164 -8.04539 -4.09106 1 -7.3197 0.0580786 4
325 1 9.80572 20.5029 0.891429 0 0 0 1 -6.98672 0 4
326 1 10.6971 17.8286 0 0 0 0 1 -3.32595 0 2
327 1 10.6672 19.622 1.75762 -1.35799 -0.101198 -3.15566 1 -7.36667 0.00735245 4
328 1 12.496 17.8215 1.77561 -2.54215 4.19784 -6.13694 1 -7.39122 0.0384325 4
329 1 12.48 19.6114 0 0 0 0 1 -3.33295 0 2
330 1 11.5886 18.72 0.891429 0 0 0 1 -7.01738 0 4
331 1 11.5421 20.5243 2.69162 1.544 4.51807 1.07516 1 -7.27746 0.0149089 4
332 1 8.88623 19.6312 3.59071 -7.04494 6.22157 1.46119 1 -7.34143 0.0563135 4
333 1 10.6857 17.8191 3.54801 9.31618 -0.2136 5.47192 1 -7.27888 0.0726861 4
334 1 12.4671 19.5998 3.53742 -4.24813 -0.200729 -2.12308 1 -7.2774 0.0140633 4
335 1 16.0508 21.3831 1.76161 0.0290455 0.103287 2.72137 1 -7.33988 0.00461675 4
337 1 13.3638 18.7348 2.69533 3.69173 8.61126 3.21439 1 -7.36944 0.0610693 4
338 1 13.3714 20.5029 0.891429 0 0 0 1 -7.04783 0 4
339 1 14.2629 17.8286 0 0 0 0 1 -3.33593 0 2
340 1 14.2768 19.6286 1.76578 -3.73433 -2.25892 -3.88411 1 -7.3497 0.021246 4
341 1 16.0888 17.8329 1.76297 -4.58991 -1.99561 0.829426 1 -7.33962 0.0160198 4
342 1 16.0457 19.6114 0 0 0 0 1 -3.29914 0 2
343 1 15.1543 18.72 0.891429 0 0 0 1 -7.0102 0 4
344 1 15.1354 20.5209 2.68274 -1.32671 -2.35966 -2.78326 1 -7.35178 0.00938289 4
345 1 16.9439 18.7411 2.64782 -2.88702 3.16605 -1.43092 1 -7.38235 0.0127014 4
346 1 16.9371 20.5029 0.891429 0 0 0 1 -7.0509 0 4
347 1 14.259 17.8761 3.57828 5.37082 -7.6596 -2.8547 1 -7.36046 0.0595441 4
348 1 16.0422 19.6139 3.56621 0.709823 -0.3333 0.157753 1 -7.37788 0.000398243 4
304 1 21.3977 17.8385 3.55316 0.443761 -5.64868 -2.22635 1 -7.37158 0.0230678 4
351 1 17.8286 17.8286 0 0 0 0 1 -3.30482 0 2
352 1 17.7961 19.6074 1.73913 2.07606 -0.923454 0.814773 1 -7.3529 0.00362666 4
353 1 19.6105 17.7805 1.77954 -1.40185 5.43227 2.60775 1 -7.35843 0.0238234 4
354 1 19.6114 19.6114 0 0 0 0 1 -3.34761 0 2
355 1 18.72 18.72 0.891429 0 0 0 1 -6.97625 0 4
356 1 18.7363 20.4866 2.63241 3.59508 -3.42912 2.24372 1 -7.3315 0.0184971 4
357 1 20.4984 18.6885 2.67274 7.46692 -1.64313 6.89381 1 -7.34235 0.0659643 4
358 1 20.5029 20.5029 0.891429 0 0 0 1 -7.00387 0 4
359 1 17.8413 17.839 3.52986 1.88958 -1.99605 2.47185 1 -7.325 0.00850531 4
360 1 19.612 19.5977 3.49457 1.38529 -5.6977 -1.87274 1 -7.29926 0.0235837 4
361 1 0.867752 0.840815 4.4697 3.31739 -10.3329 -0.14377 1 -7.34451 0.0733179 4
362 1 0.883862 2.69034 6.25224 -0.219282 2.78973 0.308334 1 -7.35262 0.00493319 4
363 1 2.64078 0.925906 6.26713 0.111475 3.57472 -0.252067 1 -7.35279 0.00800104 4
364 1 2.63653 2.62459 4.43729 5.69684 8.5143 -2.64283 1 -7.25431 0.0696693 4
365 1 3.54561 1.74165 5.37614 6.92526 1.2586 4.90501 1 -7.29286 0.045812 4
366 1 1.77603 3.51078 5.3294 -2.35632 -5.16119 0.600211 1 -7.25843 0.0202602 4
367 1 1.7428 1.78323 7.13082 5.65214 9.27563 -3.45174 1 -7.38462 0.0808522 4
368 1 0.883598 0.89854 8.04652 -1.81015 4.72936 -9.22375 1 -7.36876 0.0689157 4
369 1 2.67715 2.66464 8.0331 10.8367 -3.47826 -0.505875 1 -7.31336 0.0807836 4
370 1 3.55058 3.55024 7.16934 -5.42994 -7.08476 3.55502 1 -7.39672 0.05746 4
411 1 -0.0155757 1.77804 5.35507 0.149834 -3.30622 1.20817 1 -7.26911 0.0077263 4
371 1 -0.038621 3.59313 7.13645 -2.83051 4.10196 -1.2783 1 -7.32875 0.0164768 4
651 1 3.5224 0.0390281 7.15206 5.39226 -4.33209 1.41801 1 -7.3223 0.0310306 4
710 1 0.00969134 0.00942031 7.13502 0.212935 -1.60778 -3.38743 1 -7.38846 0.00877933 4
652 1 1.80035 0.00025514 5.3597 -1.65195 -0.767646 2.06899 1 -7.32317 0.00472978 4
372 1 4.44219 0.917313 4.5102 4.26676 7.15468 -2.39748 1 -7.33011 0.0467707 4
373 1 4.42444 2.72245 6.27796 -7.74049 0.142639 2.65833 1 -7.29655 0.041704 4
374 1 6.22224 0.88695 6.26319 5.45659 1.8653 -6.93176 1 -7.34167 0.0506051 4
375 1 6.24889 2.711 4.46178 8.66966 -5.88662 -2.78503 1 -7.33656 0.0731797 4
376 1 7.13262 1.78901 5.39071 -4.09749 4.03375 4.53633 1 -7.3674 0.0333862 4
377 1 8.00345 0.874636 4.50647 4.36431 5.30724 -1.55258 1 -7.34224 0.0308876 4
378 1 8.04507 2.64159 6.27121 1.31047 5.33509 10.7224 1 -7.37963 0.0903461 4
379 1 5.34699 3.57053 5.32464 -9.69283 -2.38467 -6.11636 1 -7.36393 0.085302 4
380 1 5.28975 1.79274 7.14849 -0.182328 -3.71617 -8.06215 1 -7.28755 0.049073 4
381 1 4.43392 0.932083 7.9982 -1.23212 -4.68258 -6.80137 1 -7.31399 0.0433851 4
382 1 6.25141 2.62152 8.06106 4.52762 1.35022 -7.89228 1 -7.25565 0.0526638 4
383 1 8.05153 0.879095 8.04037 -4.21626 5.41776 1.64412 1 -7.32749 0.0310168 4
384 1 7.15614 3.50261 7.15824 1.45281 3.38674 -3.64374 1 -7.27026 0.0167168 4
665 1 7.11291 -0.0301003 7.1525 0.109079 1.06231 -3.49838 1 -7.32797 0.0083275 4
386 1 9.78732 0.855317 6.30418 2.31699 1.46681 3.55589 1 -7.24963 0.0125508 4
387 1 9.79392 2.64907 4.45947 -2.30165 1.02193 -0.0845461 1 -7.38097 0.00395182 4
388 1 10.6942 1.76242 5.34808 -1.772 -2.10588 2.17851 1 -7.32204 0.00766869 4
389 1 11.5995 0.901737 4.5152 -1.02747 -3.70187 0.7901 1 -7.3889 0.00957528 4
390 1 11.5955 2.67294 6.25431 -0.329149 -0.561758 -0.0619069 1 -7.29057 0.000266239 4
391 1 8.92394 3.52055 5.3714 3.71254 -1.77579 -0.894017 1 -7.35589 0.0110392 4
392 1 12.486 3.57671 5.33056 6.36975 1.58219 -0.266981 1 -7.33317 0.0268567 4
393 1 8.92714 1.77744 7.17471 -2.98241 0.332788 -3.80377 1 -7.3902 0.014611 4
394 1 9.85041 2.64249 8.05986 0.391943 5.84314 1.38928 1 -7.35088 0.022548 4
395 1 12.4803 1.77048 7.17808 -2.88627 1.00206 -3.314 1 -7.29365 0.012646 4
396 1 11.5816 0.893049 8.05945 0.725366 -2.7056 -1.4127 1 -7.36303 0.006126 4
397 1 10.7493 3.53716 7.16593 1.93434 0.802194 1.71211 1 -7.3696 0.00455399 4
398 1 13.376 0.865483 6.22721 3.11406 -6.69792 0.698085 1 -7.27102 0.0342626 4
399 1 13.3387 2.63352 4.46331 -3.94613 12.7986 0.139554 1 -7.24577 0.111661 4
400 1 14.2791 1.74683 5.35773 0.565513 -5.39959 1.04964 1 -7.37066 0.019032 4
401 1 15.1786 0.872105 4.48293 1.52236 2.14744 -2.53457 1 -7.34694 0.00831135 4
402 1 15.0961 2.68449 6.2211 -8.41082 7.5402 5.46352 1 -7.41011 0.0979988 4
403 1 16.9176 0.871301 6.21256 4.50164 -1.77576 2.71684 1 -7.36623 0.0191703 4
404 1 16.9159 2.69395 4.41499 -3.59249 -0.955917 3.41713 1 -7.30924 0.0158697 4
405 1 16.0404 3.5445 5.3483 -2.16914 2.99801 0.577827 1 -7.31983 0.00873083 4
406 1 13.3953 2.68811 8.05862 -11.2307 -6.22707 -0.804975 1 -7.35966 0.103044 4
407 1 16.0157 1.82156 7.12923 0.30528 -2.97455 1.65582 1 -7.26285 0.00727173 4
408 1 15.2048 0.892375 8.07851 0.165455 -5.05174 0.88353 1 -7.29942 0.0163873 4
409 1 16.9174 2.64842 8.04898 -6.21942 10.1198 -1.05929 1 -7.35444 0.0885171 4
410 1 14.2551 3.56634 7.11582 4.40406 -0.690769 -2.56529 1 -7.3914 0.0164654 4
412 1 17.819 1.75983 5.34655 6.80076 -0.46419 -0.229224 1 -7.33947 0.0289543 4
413 1 18.7363 0.884804 4.47946 -6.98519 4.19972 -2.93871 1 -7.34624 0.0467234 4
414 1 18.7108 2.66704 6.25103 -5.34605 2.18736 -3.61137 1 -7.33893 0.0288848 4
415 1 20.5008 0.866871 6.28132 -8.30846 3.55894 9.83086 1 -7.31005 0.111005 4
416 1 20.4706 2.62848 4.4404 4.25882 1.45172 3.74564 1 -7.3212 0.0213335 4
417 1 19.6246 3.53691 5.35906 -3.22026 -6.1286 -8.14805 1 -7.35127 0.071156 4
418 1 19.5941 1.79525 7.14166 -1.83194 -4.80584 -3.83389 1 -7.36739 0.0256133 4
419 1 18.7507 0.871556 8.02453 0.753202 -2.58599 0.599928 1 -7.2528 0.00473952 4
420 1 20.4854 2.69176 7.99563 -5.20386 -4.74254 -3.44801 1 -7.33114 0.0382547 4
421 1 17.8578 3.53101 7.18468 0.396296 -8.8599 -1.17748 1 -7.31686 0.0498199 4
423 1 0.890099 4.44184 4.43893 0.152045 3.17144 -3.32821 1 -7.37167 0.0131693 4
424 1 0.888329 6.16889 6.23186 10.7986 -6.36608 -2.94765 1 -7.3899 0.103214 4
425 1 2.6668 4.47072 6.25694 -2.86129 -6.94768 -5.65408 1 -7.25318 0.0550386 4
426 1 2.68421 6.28436 4.45537 -0.205754 3.04063 -1.61478 1 -7.30751 0.00740391 4
427 1 3.59476 5.35721 5.36049 1.78693 -0.830428 2.94652 1 -7.29765 0.00782058 4
428 1 1.76219 7.1049 5.32649 5.03838 3.65164 4.29241 1 -7.28134 0.0355683 4
429 1 0.908398 7.99228 4.45948 0.417573 -1.67391 6.71563 1 -7.36899 0.0299238 4
430 1 2.65025 8.06846 6.2593 13.0099 -3.8539 -0.791938 1 -7.26182 0.114986 4
431 1 1.7339 5.33342 7.10817 3.95496 0.915572 2.64616 1 -7.36551 0.0146159 4
432 1 0.878374 4.45631 8.0269 -5.68874 -6.38013 1.09829 1 -7.33991 0.0462301 4
433 1 2.68503 6.19724 8.01751 -10.8312 1.87251 -5.76283 1 -7.29573 0.0958726 4
434 1 0.913728 8.02854 8.04763 -5.37471 -2.67737 3.30892 1 -7.36635 0.029257 4