ITEM: TIMESTEP
49125975
ITEM: NUMBER OF ATOMS
3060
ITEM: BOX BOUNDS pp pp mm
0.0000000000000000e+00 2.1394294200000001e+01
0.0000000000000000e+00 2.1394294200000001e+01
-5.3491084073550004e-03 5.3485735499999997e+01
ITEM: ATOMS id type x y z vx vy vz c_clusts c_atom_pe c_atom_ke c_atom_coord
1 1 0 0 0 0 0 0 1 -3.33531 0 2
2 1 1.78286 1.78286 0 0 0 0 1 -3.30501 0 2
3 1 0.891429 0.891429 0.891429 0 0 0 1 -7.00586 0 4
4 1 0.881294 2.64466 2.70797 3.05804 -4.49073 -2.58292 1 -7.29659 0.0225254 4
5 1 2.67364 0.872227 2.67209 10.1884 1.78483 9.86807 1 -7.33886 0.127204 4
6 1 2.67429 2.67429 0.891429 0 0 0 1 -7.03329 0 4
7 1 3.56572 0 0 0 0 0 1 -3.3224 0 2
8 1 3.54778 1.74301 1.75357 0.482649 -0.124641 6.74085 1 -7.34912 0.0284371 4
9 1 0 3.56572 0 0 0 0 1 -3.3159 0 2
10 1 1.78004 3.55019 1.7802 4.56808 1.51493 3.59588 1 -7.28359 0.0224651 4
11 1 3.56572 3.56572 0 0 0 0 1 -3.33591 0 2
12 1 1.81518 1.83355 3.5666 -6.19811 -1.83441 -3.15811 1 -7.32711 0.0322138 4
13 1 3.62632 3.50385 3.6241 -1.93917 -4.47973 -0.55694 1 -7.23153 0.0150245 4
292 1 1.79587 0.00968006 1.77892 5.33631 -0.933388 -3.27153 1 -7.34575 0.0249284 4
56 1 -0.019646 3.56348 3.57748 -6.60174 -10.0711 -0.535319 1 -7.36482 0.090436 4
55 1 -0.0127231 1.80907 1.77581 1.16723 -5.33514 1.86431 1 -7.34131 0.0207279 4
291 1 3.5525 -0.0241662 3.57178 0.343903 7.80102 1.54941 1 -7.30516 0.0394461 4
350 1 0.0283871 0.044967 3.53188 0.348065 -1.28002 3.64845 1 -7.31861 0.00938048 4
14 1 5.34857 1.78286 0 0 0 0 1 -3.33483 0 2
15 1 4.45714 0.891429 0.891429 0 0 0 1 -7.03045 0 4
16 1 4.45946 2.61298 2.68381 2.06517 5.53619 -4.08565 1 -7.34509 0.0321215 4
17 1 6.2831 0.872481 2.65771 -0.429459 -4.66556 -1.66662 1 -7.24327 0.0153923 4
18 1 6.24 2.67429 0.891429 0 0 0 1 -7.02267 0 4
19 1 7.13143 0 0 0 0 0 1 -3.33807 0 2
20 1 7.15501 1.7666 1.74996 -4.38882 -1.50078 2.95033 1 -7.36787 0.0188088 4
21 1 8.02286 0.891429 0.891429 0 0 0 1 -7.01852 0 4
22 1 8.07953 2.66382 2.65517 3.57296 -5.37085 2.93972 1 -7.28693 0.0312795 4
23 1 5.34466 3.528 1.79216 1.11725 0.582366 -8.97375 1 -7.33268 0.0511109 4
24 1 7.13143 3.56572 0 0 0 0 1 -3.33532 0 2
25 1 5.34222 1.74359 3.61938 -7.97167 4.51289 -0.988722 1 -7.27446 0.0528386 4
26 1 7.12638 3.53783 3.56174 5.29982 5.2817 5.85141 1 -7.298 0.0561574 4
306 1 7.11174 -0.0603644 3.61683 -6.65929 2.35614 4.62496 1 -7.2363 0.0443714 4
28 1 8.91429 1.78286 0 0 0 0 1 -3.32461 0 2
29 1 9.76206 0.853998 2.71049 -6.44615 9.84029 3.51649 1 -7.28798 0.0938307 4
30 1 9.80572 2.67429 0.891429 0 0 0 1 -7.02697 0 4
31 1 10.6971 0 0 0 0 0 1 -3.32537 0 2
32 1 10.6833 1.78647 1.76716 5.52229 2.38555 2.36452 1 -7.31691 0.0260034 4
33 1 12.48 1.78286 0 0 0 0 1 -3.33782 0 2
34 1 11.5886 0.891429 0.891429 0 0 0 1 -7.01049 0 4
35 1 11.5954 2.6726 2.65998 4.19174 -4.71904 -1.45403 1 -7.3258 0.0261135 4
36 1 8.91139 3.54804 1.77936 -6.26166 6.84877 -2.73682 1 -7.40398 0.0582618 4
37 1 10.6971 3.56572 0 0 0 0 1 -3.33127 0 2
38 1 12.4895 3.56039 1.77609 -1.39587 -4.64007 -8.11635 1 -7.32129 0.0556162 4
39 1 8.91111 1.75644 3.60321 5.19148 4.27193 -4.15111 1 -7.38533 0.0388597 4
40 1 12.5293 1.76583 3.52401 -2.0572 0.964481 8.20524 1 -7.26422 0.0451186 4
41 1 10.7255 3.56875 3.58072 -2.97766 -4.55818 -0.98757 1 -7.35655 0.0190579 4
319 1 10.6555 -0.0492996 3.57025 -0.34938 6.78318 0.905692 1 -7.2958 0.0292253 4
42 1 13.348 0.869008 2.64348 1.43343 -5.45784 -6.34713 1 -7.38632 0.0448948 4
43 1 13.3714 2.67429 0.891429 0 0 0 1 -7.00335 0 4
44 1 14.2629 0 0 0 0 0 1 -3.32952 0 2
45 1 14.2731 1.7649 1.78645 -1.17538 4.32917 -0.149685 1 -7.37674 0.0125392 4
46 1 16.0457 1.78286 0 0 0 0 1 -3.34303 0 2
47 1 15.1543 0.891429 0.891429 0 0 0 1 -7.02623 0 4
48 1 15.1187 2.64555 2.63769 3.05476 -4.56253 -3.47189 1 -7.32627 0.0262678 4
49 1 16.9444 0.900846 2.65142 7.6584 -5.00139 0.942957 1 -7.31286 0.0526287 4
50 1 16.9371 2.67429 0.891429 0 0 0 1 -7.00381 0 4
51 1 14.2629 3.56572 0 0 0 0 1 -3.32451 0 2
52 1 16.0342 3.56459 1.76982 -6.86268 5.46776 -1.92617 1 -7.35562 0.0502317 4
53 1 16.0346 1.73287 3.57597 7.24207 -3.66486 1.03815 1 -7.27918 0.0416755 4
54 1 14.2794 3.53694 3.56128 1.44982 -0.494242 2.96383 1 -7.32995 0.00692795 4
336 1 14.217 -0.0137143 3.56451 -6.59214 0.212379 6.61623 1 -7.31079 0.0543229 4
57 1 17.8286 0 0 0 0 0 1 -3.34362 0 2
58 1 17.8528 1.81311 1.80747 7.76815 -6.2357 -0.66754 1 -7.35602 0.0620396 4
59 1 19.6114 1.78286 0 0 0 0 1 -3.32338 0 2
60 1 18.72 0.891429 0.891429 0 0 0 1 -6.98963 0 4
61 1 18.7864 2.65537 2.68123 -5.9776 -3.45472 0.101601 1 -7.3444 0.0296755 4
62 1 20.5056 0.904037 2.68524 -1.1502 -6.10539 4.13651 1 -7.31164 0.0346751 4
63 1 20.5029 2.67429 0.891429 0 0 0 1 -7.04703 0 4
64 1 17.8286 3.56572 0 0 0 0 1 -3.32723 0 2
65 1 19.6262 3.5642 1.7587 -5.35491 -1.69492 -3.43856 1 -7.36736 0.0269955 4
66 1 19.6244 1.76519 3.58466 3.25086 -4.66921 -0.0805425 1 -7.34193 0.0201517 4
67 1 17.8687 3.55453 3.56809 -1.22557 -1.0152 -0.490933 1 -7.29618 0.0017264 4
68 1 19.6238 0.0193087 1.76133 -2.20862 2.27498 -2.1201 1 -7.34781 0.00905528 4
349 1 17.8256 -0.00564189 3.57599 -1.72895 -2.88312 2.78577 1 -7.39952 0.0118648 4
69 1 1.78286 5.34857 0 0 0 0 1 -3.32152 0 2
70 1 0.891429 4.45714 0.891429 0 0 0 1 -7.02363 0 4
71 1 0.922391 6.20391 2.69085 -3.19447 10.6988 4.95763 1 -7.32608 0.0928954 4
72 1 2.71095 4.43324 2.72108 1.75098 7.32056 -6.52587 1 -7.25554 0.0617718 4
73 1 2.67429 6.24 0.891429 0 0 0 1 -6.98694 0 4
74 1 3.59176 5.30274 1.78456 3.89412 -1.40244 -1.38479 1 -7.34237 0.0118564 4
75 1 0 7.13143 0 0 0 0 1 -3.3348 0 2
76 1 1.76701 7.09233 1.77526 5.0203 2.8422 10.5875 1 -7.34464 0.0904863 4
77 1 0.891429 8.02286 0.891429 0 0 0 1 -7.02657 0 4
78 1 2.68008 8.04272 2.65301 -1.65021 -4.59116 2.4299 1 -7.3079 0.01849 4
79 1 3.56572 7.13143 0 0 0 0 1 -3.33968 0 2
80 1 1.78815 5.32943 3.57311 4.95754 5.65364 1.29247 1 -7.42142 0.0362322 4
81 1 3.54395 7.13576 3.59278 -0.755863 -4.76738 -0.631285 1 -7.28024 0.0147501 4
128 1 -0.0192611 5.33754 1.76132 4.8891 3.91446 4.60143 1 -7.32697 0.0375942 4
82 1 -0.0473673 7.11069 3.58268 -4.07642 3.21107 -0.263348 1 -7.28483 0.016804 4
83 1 5.34857 5.34857 0 0 0 0 1 -3.35532 0 2
84 1 4.45714 4.45714 0.891429 0 0 0 1 -7.01683 0 4
85 1 4.44506 6.22489 2.67328 -3.18418 10.9721 0.374085 1 -7.29069 0.08133 4
86 1 6.25427 4.46969 2.66933 -0.641988 -5.29834 2.62018 1 -7.33156 0.0220027 4
87 1 6.24 6.24 0.891429 0 0 0 1 -7.05026 0 4
88 1 7.15325 5.36535 1.75453 -0.673292 -8.78702 8.30364 1 -7.34359 0.0912573 4
89 1 8.02286 4.45714 0.891429 0 0 0 1 -7.02889 0 4
90 1 8.0744 6.23139 2.69187 -0.760811 -2.852 1.57164 1 -7.28405 0.00696046 4
91 1 5.36468 7.13545 1.77641 -4.99328 -2.2943 -0.750284 1 -7.35362 0.0191456 4
92 1 4.45714 8.02286 0.891429 0 0 0 1 -7.00411 0 4
93 1 6.18295 8.01385 2.64497 6.93624 -2.43472 -2.5071 1 -7.34736 0.0375477 4
94 1 7.13143 7.13143 0 0 0 0 1 -3.29765 0 2
95 1 8.02286 8.02286 0.891429 0 0 0 1 -6.94584 0 4
96 1 5.38774 5.37466 3.53308 -6.23748 -4.69477 1.10421 1 -7.363 0.0386939 4
97 1 7.12516 7.15823 3.58805 -7.96281 5.85696 -0.444673 1 -7.27261 0.0609406 4
98 1 8.91429 5.34857 0 0 0 0 1 -3.32699 0 2
99 1 9.79753 4.4377 2.68502 1.66946 1.46587 1.86171 1 -7.34566 0.0052295 4
100 1 9.80572 6.24 0.891429 0 0 0 1 -6.99781 0 4
101 1 10.671 5.34042 1.7829 -5.31672 5.7815 1.60933 1 -7.34924 0.0400115 4
102 1 12.48 5.34857 0 0 0 0 1 -3.33777 0 2
103 1 11.5886 4.45714 0.891429 0 0 0 1 -7.00777 0 4
104 1 11.5767 6.21278 2.71851 -7.2155 -1.59676 2.50425 1 -7.27565 0.037896 4
105 1 8.91772 7.13661 1.82374 -3.59908 3.08613 7.11834 1 -7.31904 0.0455295 4
106 1 9.85339 8.07831 2.65007 -2.3638 2.58123 7.46267 1 -7.31092 0.0422888 4
107 1 10.6971 7.13143 0 0 0 0 1 -3.36059 0 2
108 1 12.4898 7.12412 1.80268 -3.9547 8.91792 -5.53125 1 -7.33307 0.0782786 4
109 1 11.5886 8.02286 0.891429 0 0 0 1 -6.99469 0 4
110 1 8.94165 5.30646 3.59887 4.12093 3.86011 10.3925 1 -7.40231 0.087069 4
111 1 12.4818 5.31477 3.60494 4.13413 -7.84065 0.0991821 1 -7.33443 0.0489082 4
112 1 10.7164 7.17931 3.57927 0.978821 0.410473 -1.64607 1 -7.2867 0.00238771 4
113 1 13.3756 4.46792 2.69988 -2.6584 13.2038 -0.365039 1 -7.29181 0.112995 4
114 1 13.3714 6.24 0.891429 0 0 0 1 -7.03214 0 4
115 1 14.2554 5.3677 1.72923 9.15707 -4.93096 4.86791 1 -7.32203 0.0820749 4
116 1 16.0457 5.34857 0 0 0 0 1 -3.33102 0 2
117 1 15.1543 4.45714 0.891429 0 0 0 1 -7.04636 0 4
118 1 15.1369 6.26012 2.67994 -8.29909 -4.28008 1.96422 1 -7.33158 0.0566732 4
119 1 16.9513 4.43408 2.71135 -6.16575 2.87798 4.59902 1 -7.30332 0.0419828 4
120 1 16.9371 6.24 0.891429 0 0 0 1 -7.046 0 4
121 1 13.3832 8.01309 2.69406 -1.05186 5.58993 -0.0182502 1 -7.30221 0.020138 4
122 1 14.2629 7.13143 0 0 0 0 1 -3.33207 0 2
123 1 16.0771 7.14851 1.75193 2.7212 -4.50528 -4.58589 1 -7.33908 0.0303326 4
124 1 15.1543 8.02286 0.891429 0 0 0 1 -7.01066 0 4
125 1 16.9653 7.98392 2.63205 1.80088 -1.97992 -9.06611 1 -7.29633 0.0556185 4
126 1 16.0582 5.40135 3.54036 9.16517 3.22702 -3.11528 1 -7.30465 0.0648063 4
127 1 14.2862 7.11555 3.59197 -0.546152 6.04738 -1.90783 1 -7.38514 0.0252138 4
129 1 17.8374 5.35237 1.76796 0.592841 2.19829 5.54702 1 -7.31225 0.0223783 4
130 1 19.6114 5.34857 0 0 0 0 1 -3.3018 0 2
131 1 18.72 4.45714 0.891429 0 0 0 1 -7.04061 0 4
132 1 18.7337 6.21854 2.69223 1.95252 -1.62227 7.59765 1 -7.33376 0.03994 4
133 1 20.5016 4.45333 2.66569 2.90929 -0.681488 5.84592 1 -7.39617 0.0268286 4
134 1 20.5029 6.24 0.891429 0 0 0 1 -7.02011 0 4
135 1 17.8286 7.13143 0 0 0 0 1 -3.3131 0 2
136 1 19.5607 7.11711 1.7808 -1.79438 -4.98645 5.44984 1 -7.33403 0.0359671 4
137 1 18.72 8.02286 0.891429 0 0 0 1 -7.00759 0 4
138 1 20.4729 7.99804 2.68613 1.91562 -7.38755 4.33549 1 -7.30666 0.047953 4
139 1 19.6375 5.33458 3.56313 -3.46699 -2.53893 -6.45341 1 -7.38807 0.0374157 4
140 1 17.8567 7.1499 3.58409 -7.17899 -7.82226 -3.99027 1 -7.31131 0.0800738 4
141 1 1.78286 8.91429 0 0 0 0 1 -3.33256 0 2
142 1 0.912656 9.78732 2.70679 1.69791 -1.2773 7.4903 1 -7.32106 0.0377309 4
143 1 2.67429 9.80572 0.891429 0 0 0 1 -7.02594 0 4
144 1 3.54667 8.92217 1.76241 3.34891 -4.36435 3.02049 1 -7.42551 0.024515 4
145 1 0 10.6971 0 0 0 0 1 -3.33355 0 2
146 1 1.76729 10.7002 1.73756 -2.02109 -3.74695 -5.21845 1 -7.32391 0.0282312 4
147 1 1.78286 12.48 0 0 0 0 1 -3.30367 0 2
148 1 0.891429 11.5886 0.891429 0 0 0 1 -7.04929 0 4
149 1 2.679 11.5824 2.63474 -1.13142 2.45261 -2.45207 1 -7.373 0.00828326 4
150 1 3.56572 10.6971 0 0 0 0 1 -3.31435 0 2
151 1 3.52091 12.4645 1.7602 -6.08565 8.39059 0.617508 1 -7.30362 0.0671091 4
152 1 1.80178 8.92536 3.56521 0.0506672 -3.29471 -8.10818 1 -7.36989 0.047678 4
153 1 1.82471 12.4925 3.53972 -10.3369 0.873968 3.78476 1 -7.35564 0.0758987 4
154 1 3.55746 10.7087 3.50242 -3.01121 3.54463 7.95934 1 -7.35243 0.0528956 4
205 1 0.021523 8.88733 1.77539 7.79864 -5.71945 -1.6322 1 -7.32161 0.0598743 4
204 1 0.0274687 12.5029 1.75508 12.8013 -1.76385 -1.01066 1 -7.35712 0.104571 4
155 1 5.34857 8.91429 0 0 0 0 1 -3.31126 0 2
156 1 4.42693 9.78906 2.65184 -4.63118 -6.64132 1.969 1 -7.33912 0.0432163 4
157 1 6.24 9.80572 0.891429 0 0 0 1 -7.00978 0 4
158 1 7.03935 8.88543 1.77926 -2.15126 0.619712 0.877236 1 -7.29816 0.00359857 4
159 1 7.9924 9.7832 2.62254 1.37675 -1.56062 1.26703 1 -7.22678 0.00369493 4
160 1 5.37384 10.6782 1.78991 -0.901289 -5.0917 -1.66535 1 -7.32357 0.0183685 4
161 1 5.34857 12.48 0 0 0 0 1 -3.34764 0 2
162 1 4.45714 11.5886 0.891429 0 0 0 1 -6.94642 0 4
163 1 6.23368 11.6107 2.66801 -3.51989 -0.251408 1.49168 1 -7.36449 0.00913594 4
164 1 7.13143 10.6971 0 0 0 0 1 -3.36295 0 2
165 1 7.11238 12.4879 1.80606 0.377456 4.89383 -2.50349 1 -7.38415 0.0188965 4
166 1 8.02286 11.5886 0.891429 0 0 0 1 -7.01164 0 4
167 1 5.30543 8.92346 3.58045 -0.349153 6.04043 -6.01695 1 -7.3782 0.0453204 4
168 1 5.31071 12.4812 3.54887 -1.53791 -0.477251 -0.766308 1 -7.33449 0.00197942 4
169 1 7.10137 10.7254 3.56411 -0.644925 3.12786 -1.76869 1 -7.30352 0.0082955 4
170 1 8.91429 8.91429 0 0 0 0 1 -3.3621 0 2
171 1 9.80572 9.80572 0.891429 0 0 0 1 -6.9449 0 4
172 1 10.7367 8.95878 1.78905 12.9561 -1.95001 6.72807 1 -7.38306 0.135023 4
173 1 12.48 8.91429 0 0 0 0 1 -3.32651 0 2
174 1 11.6392 9.82826 2.6972 3.04696 2.15968 -0.145807 1 -7.39257 0.00869497 4
175 1 8.86916 10.7388 1.78173 -4.07851 -1.94089 0.444696 1 -7.28534 0.0128214 4
176 1 8.91429 12.48 0 0 0 0 1 -3.34215 0 2
177 1 9.83865 11.6059 2.66945 1.89968 0.409063 2.35399 1 -7.29168 0.00579939 4
178 1 10.6971 10.6971 0 0 0 0 1 -3.33242 0 2
179 1 10.7445 12.4852 1.76415 1.2964 6.79282 -2.45431 1 -7.35554 0.0335156 4
180 1 12.5046 10.7175 1.78731 -4.58904 2.28939 1.09792 1 -7.37735 0.0171205 4
181 1 12.48 12.48 0 0 0 0 1 -3.32021 0 2
182 1 11.5886 11.5886 0.891429 0 0 0 1 -7.0384 0 4
183 1 8.90496 8.9338 3.56335 0.995159 1.45625 -1.1353 1 -7.31483 0.00273862 4
184 1 12.5006 8.9528 3.62281 -3.34195 4.70196 -0.185405 1 -7.36177 0.0207339 4
185 1 8.92104 12.5159 3.54706 2.2491 -2.24004 2.08967 1 -7.30034 0.00898969 4
186 1 10.7273 10.7032 3.54331 1.48183 -1.34069 0.5508 1 -7.39076 0.00267434 4
187 1 12.51 12.5403 3.58171 -0.273573 -6.66713 -5.38716 1 -7.32977 0.0457776 4
188 1 13.3714 9.80572 0.891429 0 0 0 1 -7.01415 0 4
189 1 14.257 8.90965 1.78303 -4.31328 0.22741 -3.53753 1 -7.36466 0.0194012 4
190 1 16.0457 8.91429 0 0 0 0 1 -3.34347 0 2
191 1 15.1803 9.83047 2.63537 3.58257 8.87457 -5.11205 1 -7.25968 0.0732756 4
192 1 16.9371 9.80572 0.891429 0 0 0 1 -7.01049 0 4
193 1 13.3883 11.6114 2.65728 2.87621 1.92993 -2.20595 1 -7.28825 0.0104962 4
194 1 14.2629 10.6971 0 0 0 0 1 -3.34176 0 2
195 1 14.2412 12.5068 1.77277 -0.0969934 4.48703 5.44637 1 -7.3449 0.0310004 4
196 1 16.0869 10.7554 1.77152 -5.5796 0.720846 -2.89725 1 -7.32735 0.0249254 4
197 1 16.0457 12.48 0 0 0 0 1 -3.30146 0 2
198 1 15.1543 11.5886 0.891429 0 0 0 1 -7.00473 0 4
199 1 16.9622 11.5591 2.71389 -0.399043 3.1503 -5.62782 1 -7.33732 0.02599 4
200 1 16.0237 8.8992 3.56998 -0.377875 10.77 -6.34024 1 -7.27876 0.0973071 4
201 1 14.3056 10.7005 3.58577 -5.33943 1.43496 4.30146 1 -7.33871 0.0305432 4
202 1 16.0488 12.4808 3.59439 -7.65816 -0.891872 2.38884 1 -7.33666 0.0405507 4
203 1 21.4435 10.6997 3.57945 -8.91325 -6.39075 5.25337 1 -7.35129 0.0920479 4
206 1 17.8407 8.93794 1.78448 -4.94967 -5.22498 -1.29853 1 -7.31017 0.033291 4
207 1 19.6114 8.91429 0 0 0 0 1 -3.34078 0 2
208 1 18.7613 9.81533 2.71816 4.77261 -1.82483 -3.29624 1 -7.30279 0.0230129 4
209 1 20.5029 9.80572 0.891429 0 0 0 1 -6.98088 0 4
210 1 17.8286 10.6971 0 0 0 0 1 -3.30567 0 2
211 1 17.827 12.4498 1.75954 1.55154 -7.53707 -0.59462 1 -7.31288 0.0370769 4
212 1 19.6135 10.7023 1.82144 -9.57425 -1.18181 4.88296 1 -7.35508 0.0727655 4
213 1 19.6114 12.48 0 0 0 0 1 -3.34628 0 2
214 1 18.72 11.5886 0.891429 0 0 0 1 -7.02536 0 4
215 1 20.5225 11.6103 2.6834 -1.07885 -10.7476 -3.72486 1 -7.28885 0.081257 4
216 1 19.6523 8.89592 3.61971 -1.32694 -8.45988 0.84917 1 -7.29267 0.0460915 4
217 1 17.7944 10.6766 3.61259 -3.48261 -3.40507 2.2393 1 -7.32301 0.017887 4
218 1 19.6014 12.4693 3.58244 1.79307 -0.356079 -4.02499 1 -7.33169 0.0121637 4
219 1 0.917237 13.362 2.64833 -2.00069 -3.92205 -4.32592 1 -7.3728 0.0237137 4
220 1 2.67429 13.3714 0.891429 0 0 0 1 -7.02009 0 4
221 1 0 14.2629 0 0 0 0 1 -3.31931 0 2
222 1 1.78312 14.256 1.76239 4.47322 -4.05146 -1.2974 1 -7.36281 0.0237189 4
223 1 1.78286 16.0457 0 0 0 0 1 -3.32654 0 2
224 1 0.891429 15.1543 0.891429 0 0 0 1 -7.04019 0 4
225 1 0.87613 16.9235 2.68374 2.18597 0.544473 -1.02301 1 -7.34961 0.00381016 4
226 1 2.68907 15.1121 2.67562 -1.35859 -4.14913 -5.6967 1 -7.3196 0.0320634 4
227 1 2.67429 16.9371 0.891429 0 0 0 1 -7.02877 0 4
228 1 3.56572 14.2629 0 0 0 0 1 -3.3497 0 2
229 1 3.57363 16.0526 1.78265 6.18073 -10.7728 7.9427 1 -7.35734 0.135279 4
230 1 1.78478 16.0509 3.57479 2.52982 -2.22121 2.8334 1 -7.34008 0.0120513 4
231 1 3.57244 14.2516 3.53794 3.55035 9.81289 5.21767 1 -7.34341 0.0847258 4
233 1 0.00165081 16.0259 1.74474 5.61077 3.34795 0.886365 1 -7.34499 0.0270601 4
232 1 0.00909667 14.2404 3.48065 4.48628 3.01517 1.52558 1 -7.34274 0.0196347 4
234 1 4.48516 13.3811 2.64302 -5.96959 2.04538 -4.50964 1 -7.29488 0.0374429 4
235 1 6.24 13.3714 0.891429 0 0 0 1 -7.01998 0 4
236 1 7.98528 13.3799 2.65695 -2.10995 -3.86258 -2.5833 1 -7.37151 0.016211 4
237 1 5.38342 14.2654 1.77678 2.57781 0.247255 4.04302 1 -7.36741 0.0143483 4
238 1 5.34857 16.0457 0 0 0 0 1 -3.32032 0 2
239 1 4.45714 15.1543 0.891429 0 0 0 1 -6.9738 0 4
240 1 4.46767 16.9229 2.65123 -1.01669 -3.19697 -3.80747 1 -7.30505 0.0160282 4
241 1 6.22335 15.1983 2.67895 7.4965 1.5148 -3.05119 1 -7.2975 0.0422017 4
242 1 6.24 16.9371 0.891429 0 0 0 1 -6.99411 0 4
243 1 7.13143 14.2629 0 0 0 0 1 -3.34557 0 2
244 1 7.16505 16.0617 1.78069 -3.33229 1.47376 -4.0419 1 -7.33102 0.018432 4
245 1 8.02286 15.1543 0.891429 0 0 0 1 -7.03555 0 4
246 1 8.06829 16.9377 2.65638 -5.29769 -3.079 -8.14149 1 -7.33339 0.0646263 4
247 1 5.33335 16.0723 3.55526 -7.95496 -5.62603 -4.23128 1 -7.41346 0.0702329 4
248 1 7.13869 14.2646 3.5808 -3.61456 -1.30396 3.495 1 -7.30101 0.0167933 4
249 1 9.80572 13.3714 0.891429 0 0 0 1 -6.9794 0 4
250 1 11.5973 13.3817 2.70393 -6.40381 12.8569 -1.35221 1 -7.28938 0.129551 4
251 1 8.8823 14.2882 1.77578 -7.25216 1.35943 1.33273 1 -7.36369 0.0349915 4
252 1 8.91429 16.0457 0 0 0 0 1 -3.33098 0 2
253 1 9.79614 15.1396 2.67038 -4.94463 -7.58674 -4.69042 1 -7.28347 0.0647373 4
254 1 9.80572 16.9371 0.891429 0 0 0 1 -7.01129 0 4
255 1 10.6971 14.2629 0 0 0 0 1 -3.32341 0 2
256 1 10.6919 16.06 1.78142 -9.40072 -0.691429 -2.14305 1 -7.38587 0.0581622 4
257 1 12.4695 14.3012 1.77241 -0.125521 1.38086 5.47583 1 -7.33676 0.0198599 4
258 1 12.48 16.0457 0 0 0 0 1 -3.32208 0 2
259 1 11.5886 15.1543 0.891429 0 0 0 1 -7.04145 0 4
260 1 11.5446 16.9462 2.68438 -2.14546 0.723159 -5.26702 1 -7.27814 0.0204575 4
261 1 8.9253 16.0167 3.55667 2.10953 -0.244478 3.08016 1 -7.34138 0.00871228 4
262 1 10.7041 14.2538 3.64405 -5.54098 -1.06703 9.62251 1 -7.33589 0.0774507 4
263 1 12.5213 16.0509 3.58267 -0.0554025 -9.68509 -4.53611 1 -7.31719 0.0711933 4
264 1 13.3714 13.3714 0.891429 0 0 0 1 -7.02914 0 4
265 1 15.1646 13.3588 2.71655 1.6525 -8.87048 -6.45218 1 -7.35906 0.0765875 4
266 1 16.9371 13.3714 0.891429 0 0 0 1 -7.00552 0 4
267 1 13.3778 15.1623 2.66568 -1.55356 -3.99475 -5.38326 1 -7.34494 0.0294725 4
268 1 13.3714 16.9371 0.891429 0 0 0 1 -7.04884 0 4
269 1 14.2629 14.2629 0 0 0 0 1 -3.32626 0 2
270 1 14.2694 16.0294 1.744 -6.58993 -0.471916 4.91282 1 -7.33101 0.0421916 4
271 1 16.0311 14.2767 1.81929 1.33878 3.31327 2.87401 1 -7.32646 0.0130897 4
272 1 16.0457 16.0457 0 0 0 0 1 -3.34554 0 2
273 1 15.1543 15.1543 0.891429 0 0 0 1 -7.03303 0 4
274 1 15.1531 16.9061 2.69483 -3.13307 0.0830035 3.62016 1 -7.26977 0.0142713 4
275 1 16.8927 15.1663 2.70102 -2.75166 -3.09136 2.46394 1 -7.3741 0.0144397 4
276 1 16.9371 16.9371 0.891429 0 0 0 1 -7.04464 0 4
277 1 14.2794 14.2856 3.59166 -4.04234 -1.47384 5.53442 1 -7.32747 0.0305876 4
278 1 16.0524 16.0234 3.58702 -2.48034 1.22948 13.3889 1 -7.32792 0.116347 4
279 1 18.6902 13.3442 2.68661 2.50614 7.74927 2.36356 1 -7.34407 0.0447639 4
280 1 20.5029 13.3714 0.891429 0 0 0 1 -7.01854 0 4
281 1 17.8286 14.2629 0 0 0 0 1 -3.32488 0 2
282 1 17.7939 16.059 1.77846 6.4824 6.64754 3.22445 1 -7.33551 0.0601316 4
283 1 19.616 14.2273 1.79792 3.05047 10.912 1.52155 1 -7.34665 0.0813467 4
284 1 19.6114 16.0457 0 0 0 0 1 -3.32347 0 2
285 1 18.72 15.1543 0.891429 0 0 0 1 -6.97369 0 4
286 1 18.7422 16.9246 2.67956 -0.578789 -1.37409 -6.80911 1 -7.3564 0.0302419 4
287 1 20.5267 15.0973 2.64249 -0.524655 1.34496 -8.47262 1 -7.26782 0.0459783 4
288 1 20.5029 16.9371 0.891429 0 0 0 1 -7.04958 0 4
289 1 17.7994 14.2398 3.57432 -3.91631 -2.09243 -0.314837 1 -7.31225 0.0123333 4
290 1 19.6082 16.0535 3.59989 3.6666 4.03758 -4.6815 1 -7.28573 0.0321561 4
293 1 0 17.8286 0 0 0 0 1 -3.32104 0 2
294 1 1.75191 17.8243 1.77787 -1.0328 5.16645 -4.70753 1 -7.2933 0.0310713 4
295 1 1.78286 19.6114 0 0 0 0 1 -3.34183 0 2
296 1 0.891429 18.72 0.891429 0 0 0 1 -7.02194 0 4
297 1 0.879376 20.5003 2.65861 -8.66679 4.08962 1.81289 1 -7.31606 0.0592082 4
298 1 2.66914 18.7577 2.73829 -2.9096 -0.360286 -3.85319 1 -7.32856 0.0145913 4
299 1 2.67429 20.5029 0.891429 0 0 0 1 -7.03279 0 4
300 1 3.56572 17.8286 0 0 0 0 1 -3.31072 0 2
301 1 3.51312 19.6198 1.76958 0.232294 7.76294 9.44302 1 -7.29776 0.0930451 4
302 1 1.77793 19.6206 3.58044 2.55167 -6.57865 -12.8412 1 -7.37282 0.133626 4
303 1 3.55254 17.8942 3.59324 1.33199 -1.23296 -10.1634 1 -7.29746 0.0663441 4
305 1 -0.0443535 19.6055 1.75076 -2.50858 -1.68301 0.372447 1 -7.3852 0.00576627 4
27 1 5.34074 21.3858 1.77546 -4.52899 -1.34226 -1.84222 1 -7.36587 0.0160008 4
307 1 5.34168 17.8023 1.75106 -2.58649 5.98503 -6.5504 1 -7.35637 0.0531666 4
308 1 5.34857 19.6114 0 0 0 0 1 -3.32817 0 2
309 1 4.45714 18.72 0.891429 0 0 0 1 -7.00036 0 4
310 1 4.49021 20.5189 2.62531 0.683999 -0.0848823 2.60177 1 -7.30246 0.00450903 4
311 1 6.27189 18.6834 2.66406 0.177842 -0.125036 -0.861445 1 -7.29336 0.000491311 4
312 1 6.24 20.5029 0.891429 0 0 0 1 -7.01315 0 4
313 1 7.13143 17.8286 0 0 0 0 1 -3.32025 0 2
314 1 7.12092 19.5903 1.78637 2.59844 4.04164 4.19264 1 -7.3603 0.0253109 4
315 1 8.02286 18.72 0.891429 0 0 0 1 -7.00786 0 4
316 1 8.02545 20.4561 2.67458 -5.42475 -0.1057 -5.11591 1 -7.28932 0.0346141 4
317 1 5.36824 19.6241 3.52643 -9.32829 3.0546 0.186785 1 -7.32569 0.0599909 4
318 1 7.14051 17.7848 3.60389 8.83988 3.73687 0.434562 1 -7.34886 0.0574478 4
320 1 8.9203 21.3812 1.77393 0.513783 -0.396362 -2.29995 1 -7.3637 0.00355457 4
321 1 12.4618 21.3713 1.77759 -2.76456 -2.40754 0.746418 1 -7.42589 0.00871158 4
322 1 8.91303 17.8206 1.78173 -9.21787 -2.19103 -3.9482 1 -7.40705 0.0655776 4
323 1 8.91429 19.6114 0 0 0 0 1 -3.33669 0 2
324 1 9.80845 18.7043 2.65216 -7.49769 6.32151 3.1365 1 -7.33568 0.0659862 4
325 1 9.80572 20.5029 0.891429 0 0 0 1 -7.05184 0 4
326 1 10.6971 17.8286 0 0 0 0 1 -3.32595 0 2
327 1 10.6672 19.622 1.75762 -1.35799 -0.101198 -3.15566 1 -7.34396 0.00735245 4
328 1 12.496 17.8215 1.77561 -2.54215 4.19784 -6.13694 1 -7.3057 0.0384325 4
329 1 12.48 19.6114 0 0 0 0 1 -3.32426 0 2
330 1 11.5886 18.72 0.891429 0 0 0 1 -6.96359 0 4
331 1 11.5982 20.4888 2.64236 5.67903 -1.73042 -3.78716 1 -7.35698 0.0308651 4
332 1 8.91351 19.5967 3.58257 7.4655 4.29904 -0.374751 1 -7.32863 0.046281 4
333 1 10.7278 17.8597 3.56664 -10.7094 0.975721 -5.44385 1 -7.37126 0.0904258 4
334 1 12.4613 19.6169 3.5672 -3.98498 2.75234 4.87623 1 -7.37111 0.0293991 4
335 1 16.0508 21.3831 1.76161 0.0290455 0.103287 2.72137 1 -7.35404 0.00461675 4
337 1 13.3918 18.7504 2.65329 -5.10047 -5.65541 -6.01868 1 -7.31209 0.0586468 4
338 1 13.3714 20.5029 0.891429 0 0 0 1 -7.02469 0 4
339 1 14.2629 17.8286 0 0 0 0 1 -3.33593 0 2
340 1 14.2768 19.6286 1.76578 -3.73433 -2.25892 -3.88411 1 -7.3825 0.021246 4
341 1 16.0888 17.8329 1.76297 -4.58991 -1.99561 0.829426 1 -7.30142 0.0160198 4
342 1 16.0457 19.6114 0 0 0 0 1 -3.31879 0 2
343 1 15.1543 18.72 0.891429 0 0 0 1 -7.01133 0 4
344 1 15.1698 20.4757 2.6591 4.23758 -0.131106 0.398545 1 -7.3283 0.0112865 4
345 1 16.948 18.7146 2.69092 -3.62162 -0.626294 -2.79811 1 -7.32629 0.0132812 4
346 1 16.9371 20.5029 0.891429 0 0 0 1 -6.98045 0 4
347 1 14.2882 17.8064 3.54126 -3.53219 8.90742 5.58691 1 -7.34418 0.0765783 4
348 1 16.0709 19.6063 3.55565 -4.00931 0.312832 -0.031969 1 -7.38339 0.0100668 4
304 1 21.3708 17.7999 3.57971 -0.280777 -0.230581 -1.02723 1 -7.32439 0.000738945 4
351 1 17.8286 17.8286 0 0 0 0 1 -3.33147 0 2
352 1 17.8661 19.6156 1.81721 0.725233 2.09106 -3.31256 1 -7.31829 0.00987886 4
353 1 19.6105 17.7805 1.77954 -1.40185 5.43227 2.60775 1 -7.33832 0.0238234 4
354 1 19.6114 19.6114 0 0 0 0 1 -3.32957 0 2
355 1 18.72 18.72 0.891429 0 0 0 1 -6.99424 0 4
356 1 18.7159 20.5259 2.70998 -6.6947 2.41115 -8.71817 1 -7.3178 0.0788235 4
357 1 20.4934 18.7317 2.67693 -3.1415 2.48879 -10.5777 1 -7.3175 0.0796399 4
358 1 20.5029 20.5029 0.891429 0 0 0 1 -7.04918 0 4
359 1 17.8402 17.7886 3.60341 -4.9347 3.59503 -0.156161 1 -7.34283 0.0232165 4
360 1 19.6079 19.6126 3.59939 3.39765 6.15705 1.34575 1 -7.38077 0.0319083 4
361 1 0.90099 0.93175 4.42778 -7.8972 3.09843 3.38501 1 -7.37505 0.0519255 4
362 1 0.885607 2.63675 6.25612 -6.16046 -2.71964 -3.29102 1 -7.36285 0.034967 4
363 1 2.65464 0.899011 6.24513 -3.2205 -6.42372 -2.65845 1 -7.32642 0.0365384 4
364 1 2.69152 2.74108 4.4936 -8.89184 -13.129 -2.62612 1 -7.29553 0.160793 4
365 1 3.56557 1.79967 5.36785 -10.3264 4.61619 -3.46526 1 -7.30934 0.0871102 4
366 1 1.77312 3.57821 5.40181 2.84971 4.85329 -0.741132 1 -7.39022 0.0200574 4
367 1 1.76022 1.77799 7.17222 -2.9046 -4.5961 2.67863 1 -7.31838 0.0228654 4
368 1 0.853249 0.889274 8.08484 -4.2777 -1.04812 0.279757 1 -7.30549 0.0121221 4
369 1 2.63772 2.70365 8.04719 -11.8328 2.88472 0.877092 1 -7.35572 0.0928077 4
370 1 3.54961 3.58346 7.13418 0.557624 11.6036 -4.65406 1 -7.27772 0.0974804 4
411 1 -0.00135493 1.79326 5.33484 -3.18819 -3.31255 -0.41796 1 -7.41015 0.0132653 4
371 1 0.0381236 3.55207 7.16608 8.71198 -2.93658 -4.63205 1 -7.30915 0.0659635 4
651 1 3.60593 0.0109088 7.16063 -6.90164 5.62516 -5.36801 1 -7.29042 0.0672784 4
710 1 -0.0204085 0.00560296 7.15935 2.61234 1.96866 4.47909 1 -7.32553 0.0191472 4
652 1 1.7431 0.0406437 5.33003 2.86831 0.752052 -3.06868 1 -7.36949 0.0113341 4
372 1 4.46043 0.888559 4.44318 0.498089 -4.86721 -0.579218 1 -7.34775 0.0151084 4
373 1 4.46009 2.65354 6.26056 6.06672 -0.967739 -9.9637 1 -7.32089 0.0852829 4
374 1 6.24266 0.890736 6.29325 -8.72641 0.544262 6.39099 1 -7.36849 0.0730051 4
375 1 6.25005 2.62345 4.48821 -4.0383 4.67914 1.13921 1 -7.34614 0.0245858 4
376 1 7.08219 1.73515 5.35554 -1.08131 -2.44666 -4.47951 1 -7.26491 0.0169433 4
377 1 8.02892 0.867667 4.43486 -6.03102 -1.51896 -2.58922 1 -7.32802 0.0282485 4
378 1 8.01013 2.64628 6.27819 4.47622 -5.65166 -6.13735 1 -7.27828 0.0557974 4
379 1 5.37151 3.57577 5.42989 -0.748776 2.42582 2.24369 1 -7.24795 0.0071451 4
380 1 5.36114 1.77401 7.19195 2.41079 6.45995 1.73105 1 -7.36206 0.031457 4
381 1 4.44039 0.881898 8.07259 -4.79211 4.13638 5.68862 1 -7.30712 0.045085 4
382 1 6.24926 2.68137 8.07721 -10.7089 0.535284 4.87005 1 -7.39026 0.0863203 4
383 1 8.00599 0.845389 8.06864 2.56201 -3.2226 -1.73905 1 -7.34443 0.012432 4
384 1 7.12849 3.55236 7.19901 0.128683 -1.05023 -0.891361 1 -7.39054 0.00119136 4
665 1 7.13309 -0.00688892 7.14891 6.54718 1.96413 2.33862 1 -7.40582 0.032486 4
386 1 9.83473 0.902686 6.22446 -1.79687 -2.32883 -4.22744 1 -7.3736 0.0165089 4
387 1 9.81143 2.68058 4.48772 0.536955 -0.934966 -1.54955 1 -7.34143 0.00221808 4
388 1 10.6974 1.77972 5.3704 -2.05186 0.306221 5.84759 1 -7.37084 0.0239623 4
389 1 11.5795 0.888532 4.43673 -0.93814 -0.325484 0.0601313 1 -7.28234 0.000615992 4
390 1 11.6023 2.644 6.26192 -1.28905 1.38184 -0.517364 1 -7.36945 0.00238937 4
391 1 8.91722 3.57485 5.34332 2.03137 1.66923 7.85955 1 -7.3221 0.0427516 4
392 1 12.5084 3.54094 5.3644 -4.3322 0.522413 -1.59825 1 -7.37043 0.0134415 4
393 1 8.90133 1.70976 7.1162 7.24975 0.0760029 4.08497 1 -7.28983 0.043104 4
394 1 9.7764 2.63992 8.03247 -0.370872 -0.408392 2.7317 1 -7.29551 0.00483408 4
395 1 12.5314 1.80371 7.16424 1.38354 0.766497 -1.66742 1 -7.39072 0.00328765 4
396 1 11.6451 0.877258 8.05871 -4.20349 -5.76226 -1.45075 1 -7.30271 0.0329747 4
397 1 10.6636 3.54167 7.11134 2.14615 -1.86862 3.42543 1 -7.29198 0.0123435 4
398 1 13.4132 0.904152 6.30843 -1.88688 2.62863 3.85557 1 -7.35085 0.0157694 4
399 1 13.4128 2.71964 4.4451 5.25329 -8.6589 -0.184494 1 -7.30266 0.0638657 4
400 1 14.2942 1.76338 5.36048 -8.53235 1.96054 -4.77711 1 -7.26684 0.0619099 4
401 1 15.1239 0.851368 4.44129 3.85736 0.458099 1.33219 1 -7.35317 0.0104965 4
402 1 15.22 2.67154 6.25136 -0.999237 -3.25221 -4.33283 1 -7.28799 0.0188899 4
403 1 16.9616 0.880697 6.27913 -12.3591 7.8729 -1.5069 1 -7.34611 0.135068 4
404 1 16.9662 2.62737 4.48919 0.796881 -2.53416 -0.243565 1 -7.28948 0.00442937 4
405 1 16.0887 3.56727 5.33443 -3.51051 -0.159293 -3.89391 1 -7.39438 0.017124 4
406 1 13.4111 2.64639 8.05107 6.89185 -1.03148 -2.0003 1 -7.30278 0.0327165 4
407 1 16.1099 1.73807 7.16033 -4.1646 -1.16072 -6.11099 1 -7.31535 0.0348779 4
408 1 15.1625 0.901331 8.04376 1.92224 6.35072 -3.08011 1 -7.39117 0.0333083 4
409 1 16.9885 2.68439 8.05154 3.65828 -3.16734 0.282989 1 -7.34023 0.014624 4
410 1 14.3544 3.54685 7.11989 -9.9398 3.84571 0.910428 1 -7.3251 0.0712167 4
412 1 17.8622 1.77049 5.37221 -9.75647 5.72221 -6.14985 1 -7.34469 0.103169 4
413 1 18.6863 0.880912 4.42988 2.43064 -7.64758 -0.617666 1 -7.31759 0.0403177 4
414 1 18.7237 2.6975 6.25636 2.3278 -3.90452 4.63169 1 -7.34575 0.0262144 4
415 1 20.4939 0.915671 6.22509 4.9006 1.56895 -6.64046 1 -7.37449 0.0439266 4
416 1 20.5097 2.68566 4.49551 1.38748 -2.48021 -4.86386 1 -7.36738 0.0197519 4
417 1 19.5861 3.56408 5.33145 -1.8753 3.62096 2.39495 1 -7.35503 0.0139199 4
418 1 19.6516 1.76895 7.15981 4.04217 -1.94696 -0.0830508 1 -7.28905 0.0125336 4
419 1 18.7314 0.894954 8.06303 -11.0261 -0.829242 -3.33296 1 -7.39283 0.0830136 4
420 1 20.5158 2.66741 8.12937 3.60427 5.71179 -0.045343 1 -7.27872 0.0283934 4
421 1 17.8232 3.56701 7.13464 0.394662 7.49813 -1.37811 1 -7.37786 0.0362731 4
423 1 0.875079 4.4458 4.46782 1.93863 -8.6588 1.35562 1 -7.32333 0.0501494 4
424 1 0.878552 6.25778 6.2472 -7.20532 0.827323 -3.35342 1 -7.2755 0.0397397 4
425 1 2.6696 4.46517 6.23038 2.77994 0.636419 -3.61466 1 -7.34297 0.0131947 4
426 1 2.66288 6.17486 4.48785 2.67376 -9.02552 -1.69648 1 -7.29881 0.056944 4
427 1 3.56282 5.34235 5.40437 -3.73925 3.4242 -3.85127 1 -7.42025 0.0252328 4
428 1 1.76442 7.12135 5.35339 -3.72969 -0.188252 -0.277712 1 -7.33313 0.00872836 4
429 1 0.893305 8.01332 4.42271 -0.00547261 -0.143853 -10.807 1 -7.32631 0.0727062 4
430 1 2.68045 7.97306 6.23231 -10.9069 -2.91576 -4.66447 1 -7.26195 0.0928785 4
431 1 1.81947 5.3789 7.19618 0.0331931 -4.24525 -3.78697 1 -7.22835 0.0201444 4
432 1 0.890611 4.44716 8.07653 -2.71837 0.379129 -1.21189 1 -7.33869 0.00560307 4
433 1 2.6364 6.25908 8.1074 0.633757 -4.55406 0.87377 1 -7.35687 0.013634 4