ITEM: TIMESTEP
49125200
ITEM: NUMBER OF ATOMS
3060
ITEM: BOX BOUNDS pp pp mm
0.0000000000000000e+00 2.1394294200000001e+01
0.0000000000000000e+00 2.1394294200000001e+01
-5.3491084073550004e-03 5.3485735499999997e+01
ITEM: ATOMS id type x y z vx vy vz c_clusts c_atom_pe c_atom_ke c_atom_coord
1 1 0 0 0 0 0 0 1 -3.33328 0 2
2 1 1.78286 1.78286 0 0 0 0 1 -3.34107 0 2
3 1 0.891429 0.891429 0.891429 0 0 0 1 -7.0198 0 4
4 1 0.905107 2.63914 2.69846 4.4031 -0.965595 0.0466594 1 -7.32113 0.0126488 4
5 1 2.68117 0.888226 2.74519 7.50625 6.40535 4.45564 1 -7.20342 0.0729639 4
6 1 2.67429 2.67429 0.891429 0 0 0 1 -7.00575 0 4
7 1 3.56572 0 0 0 0 0 1 -3.33797 0 2
8 1 3.58934 1.80297 1.76645 6.00365 6.6481 5.30698 1 -7.31661 0.0674741 4
9 1 0 3.56572 0 0 0 0 1 -3.35706 0 2
10 1 1.78066 3.59352 1.77587 3.25397 6.32399 -5.02792 1 -7.28904 0.047218 4
11 1 3.56572 3.56572 0 0 0 0 1 -3.33181 0 2
12 1 1.76968 1.75913 3.63674 -3.45028 2.4675 -6.63934 1 -7.37692 0.0386364 4
13 1 3.52127 3.5672 3.57403 1.78258 -11.3266 -0.55478 1 -7.34456 0.0820214 4
292 1 1.79587 0.00968006 1.77892 5.33631 -0.933388 -3.27153 1 -7.30246 0.0249284 4
56 1 0.072924 3.56022 3.60203 -2.68816 0.588514 -0.599906 1 -7.20721 0.00493737 4
14 1 5.34857 1.78286 0 0 0 0 1 -3.32717 0 2
15 1 4.45714 0.891429 0.891429 0 0 0 1 -7.01797 0 4
16 1 4.4593 2.7035 2.64407 6.53557 11.8082 -4.22857 1 -7.34618 0.124503 4
17 1 6.2189 0.909935 2.66506 8.37778 0.612617 -10.3587 1 -7.30769 0.110708 4
18 1 6.24 2.67429 0.891429 0 0 0 1 -7.00998 0 4
19 1 7.13143 0 0 0 0 0 1 -3.34593 0 2
20 1 7.15501 1.7666 1.74996 -4.38882 -1.50078 2.95033 1 -7.31696 0.0188088 4
21 1 8.02286 0.891429 0.891429 0 0 0 1 -7.0466 0 4
22 1 8.06788 2.70859 2.65817 4.54082 -3.8449 -4.20647 1 -7.28646 0.0330488 4
23 1 5.3551 3.56906 1.77413 3.95899 4.33119 -5.96693 1 -7.39245 0.0435929 4
24 1 7.13143 3.56572 0 0 0 0 1 -3.31852 0 2
25 1 5.36744 1.83791 3.53664 -2.44967 -2.07181 8.7835 1 -7.40722 0.0544269 4
26 1 7.16855 3.56976 3.60764 -7.49497 -6.11546 -3.10123 1 -7.22978 0.0642289 4
27 1 5.31862 -0.0106926 1.77279 -3.3742 -10.5112 4.50771 1 -7.36628 0.0885024 4
28 1 8.91429 1.78286 0 0 0 0 1 -3.32515 0 2
29 1 9.84453 0.912645 2.64182 -3.38244 -0.758015 2.77857 1 -7.34315 0.0122841 4
30 1 9.80572 2.67429 0.891429 0 0 0 1 -7.06141 0 4
31 1 10.6971 0 0 0 0 0 1 -3.32605 0 2
32 1 10.7031 1.81218 1.77296 2.62501 0.539176 -4.42696 1 -7.34091 0.0166682 4
33 1 12.48 1.78286 0 0 0 0 1 -3.31377 0 2
34 1 11.5886 0.891429 0.891429 0 0 0 1 -6.97278 0 4
35 1 11.6457 2.67176 2.69986 -1.47963 -4.08968 2.35319 1 -7.31928 0.0152197 4
36 1 8.92847 3.5676 1.77806 -9.28078 -0.228407 -1.88826 1 -7.38796 0.0558631 4
37 1 10.6971 3.56572 0 0 0 0 1 -3.31094 0 2
38 1 12.4895 3.56039 1.77609 -1.39587 -4.64007 -8.11635 1 -7.33929 0.0556162 4
39 1 8.9332 1.79656 3.57102 -0.629991 -6.98689 -2.26344 1 -7.32575 0.0338205 4
40 1 12.5274 1.74312 3.60025 4.25914 -6.79163 2.5072 1 -7.3403 0.0439137 4
41 1 10.7427 3.56931 3.55889 -0.0759337 2.42054 -2.505 1 -7.29266 0.00755615 4
321 1 12.5253 0.00123015 1.77176 0.0727362 -7.65095 0.821076 1 -7.32861 0.0368579 4
320 1 8.9393 0.0517379 1.76248 6.40295 -1.66531 -7.54995 1 -7.37264 0.0627236 4
42 1 13.396 0.90824 2.7158 -6.76919 6.3664 0.464745 1 -7.40699 0.0538828 4
43 1 13.3714 2.67429 0.891429 0 0 0 1 -7.00239 0 4
44 1 14.2629 0 0 0 0 0 1 -3.31836 0 2
45 1 14.2802 1.77152 1.79076 5.91715 9.14378 3.33457 1 -7.35191 0.080754 4
46 1 16.0457 1.78286 0 0 0 0 1 -3.3307 0 2
47 1 15.1543 0.891429 0.891429 0 0 0 1 -7.05211 0 4
48 1 15.1658 2.6643 2.68962 -3.87421 6.90635 -7.31659 1 -7.32807 0.0723506 4
49 1 16.9976 0.862492 2.68446 1.28927 5.64298 -4.01726 1 -7.30444 0.0308996 4
50 1 16.9371 2.67429 0.891429 0 0 0 1 -7.03445 0 4
51 1 14.2629 3.56572 0 0 0 0 1 -3.3238 0 2
52 1 16.0342 3.56459 1.76982 -6.86268 5.46776 -1.92617 1 -7.36384 0.0502317 4
53 1 16.107 1.77592 3.58029 8.75883 4.08406 -0.269077 1 -7.29521 0.0581776 4
54 1 14.2824 3.54986 3.59463 -10.3316 -6.18731 1.27458 1 -7.41519 0.0912789 4
336 1 14.3034 0.0280877 3.5755 1.07505 7.80831 1.29808 1 -7.32988 0.0397173 4
350 1 21.3805 0.0130592 3.67303 -0.574107 2.02108 3.6411 1 -7.33441 0.0109995 4
55 1 21.3919 1.77552 1.80023 4.0514 4.35626 -4.33059 1 -7.37149 0.0337012 4
57 1 17.8286 0 0 0 0 0 1 -3.34302 0 2
58 1 17.8471 1.77998 1.78396 -1.14412 -1.88286 0.437829 1 -7.36625 0.00314069 4
59 1 19.6114 1.78286 0 0 0 0 1 -3.32667 0 2
60 1 18.72 0.891429 0.891429 0 0 0 1 -7.02602 0 4
61 1 18.7524 2.65518 2.67411 -9.82618 -2.83048 -3.48594 1 -7.34292 0.0726478 4
62 1 20.5299 0.88728 2.72591 0.217254 -2.5675 0.709128 1 -7.31384 0.00444544 4
63 1 20.5029 2.67429 0.891429 0 0 0 1 -7.01895 0 4
64 1 17.8286 3.56572 0 0 0 0 1 -3.32997 0 2
65 1 19.6114 3.56642 1.79673 -8.77191 2.65491 -3.41515 1 -7.39792 0.0595402 4
66 1 19.6142 1.76336 3.5998 3.31125 3.62957 -5.91626 1 -7.35215 0.0368105 4
67 1 17.8122 3.57109 3.5777 -10.5935 2.61348 -6.46604 1 -7.31936 0.100125 4
68 1 19.6238 0.0193087 1.76133 -2.20862 2.27498 -2.1201 1 -7.32251 0.00905528 4
69 1 1.78286 5.34857 0 0 0 0 1 -3.33654 0 2
70 1 0.891429 4.45714 0.891429 0 0 0 1 -6.98634 0 4
71 1 0.918142 6.31086 2.75782 5.03974 4.90476 1.20075 1 -7.31553 0.0316799 4
72 1 2.69485 4.52865 2.68726 -1.11961 8.09517 -2.10627 1 -7.29319 0.0443302 4
73 1 2.67429 6.24 0.891429 0 0 0 1 -7.02239 0 4
74 1 3.62066 5.38842 1.76436 3.15954 -0.437813 -2.00115 1 -7.35391 0.00882537 4
75 1 0 7.13143 0 0 0 0 1 -3.3427 0 2
76 1 1.7836 7.13907 1.78318 -3.25184 -5.75847 3.37953 1 -7.33782 0.0343303 4
77 1 0.891429 8.02286 0.891429 0 0 0 1 -7.03508 0 4
78 1 2.70368 8.05943 2.6724 -3.47158 -5.76832 2.94307 1 -7.286 0.033603 4
79 1 3.56572 7.13143 0 0 0 0 1 -3.30667 0 2
80 1 1.80981 5.41301 3.59248 -6.17178 5.56508 -6.45955 1 -7.39116 0.0689566 4
81 1 3.57115 7.15324 3.61942 -4.25463 1.37625 -1.46662 1 -7.2511 0.0137848 4
128 1 0.00942009 5.39935 1.82555 0.214504 1.11423 -4.20847 1 -7.24288 0.0118253 4
83 1 5.34857 5.34857 0 0 0 0 1 -3.30757 0 2
84 1 4.45714 4.45714 0.891429 0 0 0 1 -7.03247 0 4
85 1 4.46927 6.22901 2.66982 -2.77391 4.55928 5.36578 1 -7.30368 0.0356483 4
86 1 6.20924 4.43299 2.67824 -2.20095 -2.68358 6.73822 1 -7.29136 0.035758 4
87 1 6.24 6.24 0.891429 0 0 0 1 -7.04305 0 4
88 1 7.11753 5.33133 1.77121 -3.95176 -3.30909 -0.325071 1 -7.31131 0.0166014 4
89 1 8.02286 4.45714 0.891429 0 0 0 1 -7.02158 0 4
90 1 8.00692 6.17858 2.75133 0.666212 3.88915 -11.4223 1 -7.3228 0.0908983 4
91 1 5.36468 7.13545 1.77641 -4.99328 -2.2943 -0.750284 1 -7.36454 0.0191456 4
92 1 4.45714 8.02286 0.891429 0 0 0 1 -7.01284 0 4
93 1 6.22947 8.04046 2.64482 12.803 5.95833 -3.94681 1 -7.33972 0.133819 4
94 1 7.13143 7.13143 0 0 0 0 1 -3.32414 0 2
95 1 8.02286 8.02286 0.891429 0 0 0 1 -7.03188 0 4
96 1 5.32464 5.34737 3.53901 3.90151 -3.35476 5.04194 1 -7.32841 0.0323023 4
97 1 7.15292 7.09496 3.5646 -1.64654 -1.45311 5.26553 1 -7.28336 0.020259 4
98 1 8.91429 5.34857 0 0 0 0 1 -3.31366 0 2
99 1 9.76654 4.46872 2.6737 -0.117891 3.87529 -0.723735 1 -7.36677 0.00968219 4
100 1 9.80572 6.24 0.891429 0 0 0 1 -6.99175 0 4
101 1 10.66 5.33901 1.75921 0.706769 4.96809 -1.94708 1 -7.32507 0.0180333 4
102 1 12.48 5.34857 0 0 0 0 1 -3.32919 0 2
103 1 11.5886 4.45714 0.891429 0 0 0 1 -7.03841 0 4
104 1 11.6007 6.23054 2.64173 0.163557 -1.40878 1.04975 1 -7.37437 0.00193785 4
105 1 8.87539 7.09848 1.80625 -10.2054 1.93695 -1.16499 1 -7.27413 0.0680059 4
106 1 9.81595 7.99314 2.68428 -2.02946 -2.24712 -4.08718 1 -7.32138 0.0161042 4
107 1 10.6971 7.13143 0 0 0 0 1 -3.33778 0 2
108 1 12.4811 7.0987 1.76887 -1.97189 6.22945 -8.13597 1 -7.38182 0.067775 4
109 1 11.5886 8.02286 0.891429 0 0 0 1 -6.98247 0 4
110 1 8.93608 5.34262 3.60673 3.68702 -0.622667 0.7147 1 -7.40192 0.00902059 4
111 1 12.4716 5.36488 3.56297 5.16881 -1.38683 -3.5219 1 -7.26143 0.0255467 4
112 1 10.7008 7.10891 3.5661 -0.736992 -5.88634 0.451922 1 -7.35986 0.0220317 4
113 1 13.4152 4.40579 2.69067 -1.33837 7.29011 3.2937 1 -7.22831 0.0409465 4
114 1 13.3714 6.24 0.891429 0 0 0 1 -7.07536 0 4
115 1 14.2502 5.36746 1.74906 6.77336 -4.59413 -3.43822 1 -7.27987 0.0490508 4
116 1 16.0457 5.34857 0 0 0 0 1 -3.33185 0 2
117 1 15.1543 4.45714 0.891429 0 0 0 1 -6.99993 0 4
118 1 15.2015 6.22897 2.67852 0.325977 -9.38695 7.31705 1 -7.27957 0.0882353 4
119 1 16.9264 4.45501 2.68029 0.765893 -3.51479 3.83677 1 -7.32405 0.017217 4
120 1 16.9371 6.24 0.891429 0 0 0 1 -7.01621 0 4
121 1 13.3757 8.0415 2.65041 -1.85068 -3.81096 -11.3152 1 -7.25711 0.0908634 4
122 1 14.2629 7.13143 0 0 0 0 1 -3.34697 0 2
123 1 16.0771 7.14851 1.75193 2.7212 -4.50528 -4.58589 1 -7.38514 0.0303326 4
124 1 15.1543 8.02286 0.891429 0 0 0 1 -7.02034 0 4
125 1 16.9234 8.01464 2.62854 -1.81887 -7.25103 -5.74201 1 -7.27047 0.0553065 4
126 1 16.0128 5.32325 3.61051 3.4392 5.18826 -4.58583 1 -7.34605 0.0372061 4
127 1 14.2997 7.10614 3.58374 4.74633 -8.09165 -1.43084 1 -7.24669 0.0560494 4
82 1 21.3645 7.16392 3.6002 0.366849 -0.223512 5.5424 1 -7.35323 0.0192347 4
129 1 17.8187 5.33906 1.79172 -0.221506 5.76075 -1.82386 1 -7.38465 0.022757 4
130 1 19.6114 5.34857 0 0 0 0 1 -3.34211 0 2
131 1 18.72 4.45714 0.891429 0 0 0 1 -7.01667 0 4
132 1 18.7213 6.23171 2.67701 -0.0284526 0.59963 3.59511 1 -7.31797 0.00826903 4
133 1 20.4957 4.46327 2.69119 -1.17953 4.09954 3.31918 1 -7.25592 0.0181838 4
134 1 20.5029 6.24 0.891429 0 0 0 1 -6.98189 0 4
135 1 17.8286 7.13143 0 0 0 0 1 -3.31491 0 2
136 1 19.5607 7.11711 1.7808 -1.79438 -4.98645 5.44984 1 -7.36727 0.0359671 4
137 1 18.72 8.02286 0.891429 0 0 0 1 -7.04243 0 4
138 1 20.4838 8.01438 2.66286 4.33016 -3.061 7.33407 1 -7.34299 0.0509821 4
139 1 19.6179 5.36 3.61813 4.07323 5.80863 0.70387 1 -7.37523 0.0316359 4
140 1 17.8372 7.12868 3.58495 -1.70977 4.50821 -0.625953 1 -7.34646 0.0147136 4
141 1 1.78286 8.91429 0 0 0 0 1 -3.33412 0 2
142 1 0.911652 9.76442 2.69541 -3.07129 -2.19867 5.23324 1 -7.31899 0.0259264 4
143 1 2.67429 9.80572 0.891429 0 0 0 1 -7.03488 0 4
144 1 3.54667 8.92217 1.76241 3.34891 -4.36435 3.02049 1 -7.36008 0.024515 4
145 1 0 10.6971 0 0 0 0 1 -3.33388 0 2
146 1 1.77706 10.6948 1.80192 5.63855 0.57312 -10.0289 1 -7.3388 0.0825957 4
147 1 1.78286 12.48 0 0 0 0 1 -3.32507 0 2
148 1 0.891429 11.5886 0.891429 0 0 0 1 -7.02623 0 4
149 1 2.63654 11.5862 2.69947 14.6092 0.891926 1.9307 1 -7.36771 0.135659 4
150 1 3.56572 10.6971 0 0 0 0 1 -3.33664 0 2
151 1 3.54867 12.4949 1.79492 -6.28762 1.67727 -1.05012 1 -7.28436 0.0270445 4
152 1 1.85123 8.92643 3.59896 -5.23376 -3.90339 -1.8361 1 -7.3201 0.0286316 4
153 1 1.74543 12.4788 3.58474 0.922695 -0.00910704 -12.1897 1 -7.30583 0.0930152 4
154 1 3.56427 10.689 3.56545 4.21077 0.00807531 4.65262 1 -7.329 0.0245096 4
205 1 0.021523 8.88733 1.77539 7.79864 -5.71945 -1.6322 1 -7.36924 0.0598743 4
204 1 0.0274687 12.5029 1.75508 12.8013 -1.76385 -1.01066 1 -7.33621 0.104571 4
155 1 5.34857 8.91429 0 0 0 0 1 -3.33017 0 2
156 1 4.44888 9.79034 2.70332 -3.11702 -3.90842 3.83372 1 -7.32787 0.0247034 4
157 1 6.24 9.80572 0.891429 0 0 0 1 -7.02351 0 4
158 1 7.13552 8.91967 1.76602 2.65877 2.89235 7.08132 1 -7.35399 0.0408186 4
159 1 8.02867 9.80569 2.70716 10.1938 3.68604 -4.001 1 -7.26545 0.0830997 4
160 1 5.36031 10.6674 1.81658 2.13507 -5.3001 -2.97454 1 -7.32161 0.0258291 4
161 1 5.34857 12.48 0 0 0 0 1 -3.35252 0 2
162 1 4.45714 11.5886 0.891429 0 0 0 1 -6.96895 0 4
163 1 6.24354 11.6004 2.69234 5.74395 0.305945 -11.1185 1 -7.33354 0.0975393 4
164 1 7.13143 10.6971 0 0 0 0 1 -3.34521 0 2
165 1 7.12645 12.4791 1.80036 7.57247 3.57744 -0.561965 1 -7.35418 0.0438537 4
166 1 8.02286 11.5886 0.891429 0 0 0 1 -7.05313 0 4
167 1 5.38297 8.86822 3.5644 6.33001 -0.0427367 0.431647 1 -7.34815 0.0250571 4
168 1 5.29679 12.4901 3.60678 -2.18315 -6.04399 -3.8555 1 -7.31006 0.034956 4
169 1 7.16544 10.7266 3.61385 -4.41855 2.48209 7.88797 1 -7.31489 0.054714 4
170 1 8.91429 8.91429 0 0 0 0 1 -3.33444 0 2
171 1 9.80572 9.80572 0.891429 0 0 0 1 -6.99115 0 4
172 1 10.6659 8.91078 1.78142 1.7984 -8.0509 3.6346 1 -7.37269 0.0505793 4
173 1 12.48 8.91429 0 0 0 0 1 -3.34106 0 2
174 1 11.5712 9.80077 2.7037 -4.67688 -0.870334 -2.00153 1 -7.35271 0.0165795 4
175 1 8.86916 10.7388 1.78173 -4.07851 -1.94089 0.444696 1 -7.24908 0.0128214 4
176 1 8.91429 12.48 0 0 0 0 1 -3.33877 0 2
177 1 9.81205 11.5968 2.71198 -4.16449 2.32465 9.45671 1 -7.28677 0.0698214 4
178 1 10.6971 10.6971 0 0 0 0 1 -3.33025 0 2
179 1 10.7013 12.49 1.79093 -1.84608 6.84012 -6.95359 1 -7.34239 0.0613386 4
180 1 12.4626 10.6707 1.77216 -3.32301 3.36829 -0.341122 1 -7.34882 0.0140072 4
181 1 12.48 12.48 0 0 0 0 1 -3.32093 0 2
182 1 11.5886 11.5886 0.891429 0 0 0 1 -7.02544 0 4
183 1 8.94217 8.8814 3.62677 0.969301 2.61769 2.59843 1 -7.28299 0.00905238 4
184 1 12.4829 8.92587 3.58994 -6.13553 3.18742 -9.27345 1 -7.32264 0.0832814 4
185 1 8.89741 12.503 3.57524 -8.56492 0.279068 4.50133 1 -7.28083 0.0583199 4
186 1 10.6969 10.6363 3.57403 -0.022251 -3.49999 3.49047 1 -7.38395 0.0152082 4
187 1 12.4482 12.4763 3.55316 6.81727 -5.40936 2.97227 1 -7.37929 0.052639 4
188 1 13.3714 9.80572 0.891429 0 0 0 1 -7.02731 0 4
189 1 14.2791 8.96063 1.75617 -2.93718 -6.39252 1.91842 1 -7.37352 0.0330955 4
190 1 16.0457 8.91429 0 0 0 0 1 -3.31562 0 2
191 1 15.159 9.84981 2.64469 1.01673 5.83188 -0.229244 1 -7.32847 0.0218454 4
192 1 16.9371 9.80572 0.891429 0 0 0 1 -7.0027 0 4
193 1 13.3421 11.5488 2.6659 2.70943 -6.59994 -1.87193 1 -7.27079 0.0338626 4
194 1 14.2629 10.6971 0 0 0 0 1 -3.32394 0 2
195 1 14.226 12.4534 1.73392 -1.34604 2.64986 2.71486 1 -7.29714 0.0100858 4
196 1 16.0869 10.7554 1.77152 -5.5796 0.720846 -2.89725 1 -7.36639 0.0249254 4
197 1 16.0457 12.48 0 0 0 0 1 -3.32348 0 2
198 1 15.1543 11.5886 0.891429 0 0 0 1 -7.00743 0 4
199 1 16.9579 11.6152 2.65359 -0.549496 -1.78449 4.85246 1 -7.38524 0.0168259 4
200 1 16.063 8.91923 3.55285 -0.00602851 4.35494 8.91559 1 -7.3051 0.0612799 4
201 1 14.289 10.6539 3.56001 6.4317 0.821828 7.76065 1 -7.29349 0.0636554 4
202 1 16.0582 12.4626 3.53458 -5.45761 6.46053 -5.11671 1 -7.33674 0.060814 4
203 1 21.3716 10.6795 3.55815 0.323477 -2.46645 -4.22235 1 -7.27624 0.0149483 4
206 1 17.8453 8.92696 1.7267 -1.45107 2.24766 -0.534162 1 -7.31953 0.00463266 4
207 1 19.6114 8.91429 0 0 0 0 1 -3.31949 0 2
208 1 18.6846 9.79697 2.66033 7.94177 4.89483 -4.51749 1 -7.30617 0.0668727 4
209 1 20.5029 9.80572 0.891429 0 0 0 1 -7.01631 0 4
210 1 17.8286 10.6971 0 0 0 0 1 -3.30039 0 2
211 1 17.8754 12.5345 1.73731 2.33539 0.0780288 -1.92635 1 -7.34003 0.00570825 4
212 1 19.6058 10.6883 1.72277 -3.92955 1.75667 -0.0914645 1 -7.32455 0.0115371 4
213 1 19.6114 12.48 0 0 0 0 1 -3.32053 0 2
214 1 18.72 11.5886 0.891429 0 0 0 1 -7.0054 0 4
215 1 20.4817 11.5802 2.62986 0.276259 -2.29935 -7.17104 1 -7.288 0.0353458 4
216 1 19.6276 8.91132 3.52262 9.31772 6.22128 -2.85602 1 -7.3647 0.0832066 4
217 1 17.8071 10.7403 3.53148 -8.61928 4.07983 -0.714361 1 -7.37896 0.0569192 4
218 1 19.6242 12.495 3.56075 6.89655 -0.556886 -3.35243 1 -7.31415 0.0367924 4
219 1 0.873609 13.3831 2.6516 -0.956084 -1.99608 -0.296205 1 -7.36611 0.00310353 4
220 1 2.67429 13.3714 0.891429 0 0 0 1 -7.02684 0 4
221 1 0 14.2629 0 0 0 0 1 -3.29627 0 2
222 1 1.78312 14.256 1.76239 4.47322 -4.05146 -1.2974 1 -7.34663 0.0237189 4
223 1 1.78286 16.0457 0 0 0 0 1 -3.31521 0 2
224 1 0.891429 15.1543 0.891429 0 0 0 1 -7.05203 0 4
225 1 0.864621 16.9136 2.67913 0.429118 4.59831 1.3684 1 -7.31909 0.014441 4
226 1 2.66849 15.1376 2.69385 -0.825073 0.13596 -1.57273 1 -7.3695 0.00197477 4
227 1 2.67429 16.9371 0.891429 0 0 0 1 -7.01019 0 4
228 1 3.56572 14.2629 0 0 0 0 1 -3.33725 0 2
229 1 3.56053 16.0308 1.74699 5.76595 3.82148 4.11574 1 -7.35435 0.0403265 4
230 1 1.79461 16.034 3.54886 -0.830026 8.62723 -0.0087721 1 -7.40122 0.0467555 4
231 1 3.54111 14.2807 3.58791 -5.75248 8.09783 -6.43275 1 -7.3805 0.0871684 4
233 1 0.00165081 16.0259 1.74474 5.61077 3.34795 0.886365 1 -7.33162 0.0270601 4
232 1 0.0111826 14.2922 3.53603 0.00754583 2.34286 -1.55349 1 -7.41091 0.00491865 4
234 1 4.46084 13.4326 2.71057 5.27394 4.15537 -0.314677 1 -7.27125 0.0281216 4
235 1 6.24 13.3714 0.891429 0 0 0 1 -7.04474 0 4
236 1 7.99156 13.3907 2.71 7.54233 -1.65711 -2.3446 1 -7.36536 0.0405385 4
237 1 5.40297 14.2774 1.76781 3.34398 -6.17151 -1.36385 1 -7.33696 0.0318246 4
238 1 5.34857 16.0457 0 0 0 0 1 -3.32291 0 2
239 1 4.45714 15.1543 0.891429 0 0 0 1 -7.00151 0 4
240 1 4.47014 16.9332 2.63614 0.23743 -5.81391 2.40478 1 -7.3179 0.0246735 4
241 1 6.25641 15.1717 2.71944 -5.63568 1.89592 -7.90258 1 -7.30388 0.0608771 4
242 1 6.24 16.9371 0.891429 0 0 0 1 -7.03606 0 4
243 1 7.13143 14.2629 0 0 0 0 1 -3.33169 0 2
244 1 7.16505 16.0617 1.78069 -3.33229 1.47376 -4.0419 1 -7.28419 0.018432 4
245 1 8.02286 15.1543 0.891429 0 0 0 1 -7.04167 0 4
246 1 8.04807 16.9545 2.66431 1.7966 3.21031 -4.92233 1 -7.39407 0.0235048 4
247 1 5.3924 16.0994 3.55484 -3.78434 0.472758 2.22253 1 -7.346 0.0121276 4
248 1 7.13412 14.2583 3.62418 8.68831 -0.741183 0.574101 1 -7.31171 0.047532 4
249 1 9.80572 13.3714 0.891429 0 0 0 1 -7.03347 0 4
250 1 11.5743 13.3578 2.702 -0.27618 3.98757 -4.61666 1 -7.32689 0.0232106 4
251 1 8.88062 14.2731 1.77446 3.82563 9.88611 1.99677 1 -7.30666 0.0724241 4
252 1 8.91429 16.0457 0 0 0 0 1 -3.33293 0 2
253 1 9.75554 15.1455 2.71576 8.18972 4.97889 -1.53288 1 -7.29158 0.0586392 4
254 1 9.80572 16.9371 0.891429 0 0 0 1 -7.02356 0 4
255 1 10.6971 14.2629 0 0 0 0 1 -3.34065 0 2
256 1 10.6919 16.06 1.78142 -9.40072 -0.691429 -2.14305 1 -7.33648 0.0581622 4
257 1 12.4695 14.3012 1.77241 -0.125521 1.38086 5.47583 1 -7.32215 0.0198599 4
258 1 12.48 16.0457 0 0 0 0 1 -3.32208 0 2
259 1 11.5886 15.1543 0.891429 0 0 0 1 -7.05541 0 4
260 1 11.5439 16.9213 2.66855 -7.84073 -2.99807 -3.82632 1 -7.3353 0.0529723 4
261 1 8.83924 16.0297 3.53306 4.22559 -0.887985 3.87766 1 -7.30186 0.0209635 4
262 1 10.6299 14.2278 3.59979 5.71221 -3.68527 4.29148 1 -7.34307 0.0402257 4
263 1 12.5028 16.0457 3.52738 8.69427 -3.38784 2.75076 1 -7.23444 0.058903 4
264 1 13.3714 13.3714 0.891429 0 0 0 1 -6.98089 0 4
265 1 15.134 13.3764 2.67581 3.56364 1.27576 -0.60494 1 -7.29116 0.00914532 4
266 1 16.9371 13.3714 0.891429 0 0 0 1 -7.01707 0 4
267 1 13.4051 15.115 2.63273 -7.88672 -6.34946 0.428031 1 -7.33307 0.0639227 4
268 1 13.3714 16.9371 0.891429 0 0 0 1 -7.0522 0 4
269 1 14.2629 14.2629 0 0 0 0 1 -3.31956 0 2
270 1 14.2694 16.0294 1.744 -6.58993 -0.471916 4.91282 1 -7.30843 0.0421916 4
271 1 16.0161 14.2488 1.7899 5.43313 1.50652 -2.78244 1 -7.3413 0.0246048 4
272 1 16.0457 16.0457 0 0 0 0 1 -3.34873 0 2
273 1 15.1543 15.1543 0.891429 0 0 0 1 -7.00616 0 4
274 1 15.1498 16.9283 2.72243 -1.08905 2.01374 4.4364 1 -7.2611 0.0155126 4
275 1 16.8876 15.1891 2.69061 0.128607 -4.05438 -0.148637 1 -7.34397 0.0102555 4
276 1 16.9371 16.9371 0.891429 0 0 0 1 -7.02926 0 4
277 1 14.2818 14.2261 3.51397 3.56341 1.79576 -0.609742 1 -7.36206 0.0101421 4
278 1 16.0192 16.0463 3.5638 5.39757 -8.11133 -3.76802 1 -7.3721 0.0679225 4
279 1 18.7481 13.4102 2.63066 2.17645 5.26695 2.23495 1 -7.32827 0.023324 4
280 1 20.5029 13.3714 0.891429 0 0 0 1 -7.00693 0 4
281 1 17.8286 14.2629 0 0 0 0 1 -3.31795 0 2
282 1 17.7939 16.059 1.77846 6.4824 6.64754 3.22445 1 -7.34183 0.0601316 4
283 1 19.6607 14.287 1.77134 -0.840484 6.62489 0.856639 1 -7.31353 0.0282142 4
284 1 19.6114 16.0457 0 0 0 0 1 -3.30167 0 2
285 1 18.72 15.1543 0.891429 0 0 0 1 -6.99091 0 4
286 1 18.6893 16.9886 2.65903 3.30393 -0.557046 -6.48927 1 -7.34707 0.0331982 4
287 1 20.5555 15.2155 2.66167 5.38654 -2.25227 -5.88395 1 -7.29336 0.0427659 4
288 1 20.5029 16.9371 0.891429 0 0 0 1 -7.0643 0 4
289 1 17.8093 14.2792 3.55231 -0.282963 -3.31828 -2.59045 1 -7.33696 0.0110801 4
290 1 19.5829 16.077 3.55454 -3.8734 8.98014 -0.27417 1 -7.32698 0.0595794 4
291 1 3.60894 21.3759 3.63762 2.90893 3.5193 7.33088 1 -7.29831 0.0464262 4
293 1 0 17.8286 0 0 0 0 1 -3.32489 0 2
294 1 1.75191 17.8243 1.77787 -1.0328 5.16645 -4.70753 1 -7.33808 0.0310713 4
295 1 1.78286 19.6114 0 0 0 0 1 -3.33362 0 2
296 1 0.891429 18.72 0.891429 0 0 0 1 -7.00269 0 4
297 1 0.886097 20.5067 2.70258 -0.42217 7.0336 5.82146 1 -7.22233 0.0519969 4
298 1 2.67656 18.7331 2.6584 -2.99652 -1.04774 -3.68948 1 -7.34983 0.0147448 4
299 1 2.67429 20.5029 0.891429 0 0 0 1 -7.03375 0 4
300 1 3.56572 17.8286 0 0 0 0 1 -3.31955 0 2
301 1 3.51312 19.6198 1.76958 0.232294 7.76294 9.44302 1 -7.37226 0.0930451 4
302 1 1.79384 19.6152 3.57933 3.88193 -1.01706 -8.03844 1 -7.37053 0.0502424 4
303 1 3.53461 17.8275 3.55339 -7.50132 6.49015 3.62978 1 -7.37946 0.0694423 4
306 1 7.12193 21.3698 3.57367 1.89221 -0.749967 5.85397 1 -7.29312 0.0239085 4
307 1 5.35746 17.8139 1.77025 -7.16026 2.94056 -2.85963 1 -7.3121 0.0423833 4
308 1 5.34857 19.6114 0 0 0 0 1 -3.32996 0 2
309 1 4.45714 18.72 0.891429 0 0 0 1 -6.98016 0 4
310 1 4.41197 20.5404 2.67683 -0.736583 0.726806 0.616514 1 -7.31749 0.000903072 4
311 1 6.21895 18.7818 2.70646 5.98744 5.57257 0.697723 1 -7.26916 0.0419452 4
312 1 6.24 20.5029 0.891429 0 0 0 1 -7.02822 0 4
313 1 7.13143 17.8286 0 0 0 0 1 -3.32456 0 2
314 1 7.13299 19.6378 1.76966 -2.33763 0.433141 0.90164 1 -7.31889 0.00402405 4
315 1 8.02286 18.72 0.891429 0 0 0 1 -7.02475 0 4
316 1 8.04623 20.5561 2.68976 5.33103 -5.65054 -7.29183 1 -7.29579 0.0706573 4
317 1 5.31533 19.648 3.59366 -4.22733 2.99499 0.6904 1 -7.34457 0.0170028 4
318 1 7.1229 17.8353 3.57533 -1.32591 -2.76211 1.81557 1 -7.27019 0.00789459 4
319 1 10.6922 21.4002 3.55531 0.39959 4.08178 -1.39259 1 -7.32598 0.0116767 4
322 1 8.91303 17.8206 1.78173 -9.21787 -2.19103 -3.9482 1 -7.39005 0.0655776 4
323 1 8.91429 19.6114 0 0 0 0 1 -3.33215 0 2
324 1 9.8061 18.7462 2.64999 -0.868348 -6.70017 0.417908 1 -7.32971 0.0285202 4
325 1 9.80572 20.5029 0.891429 0 0 0 1 -7.02303 0 4
326 1 10.6971 17.8286 0 0 0 0 1 -3.32595 0 2
327 1 10.6672 19.622 1.75762 -1.35799 -0.101198 -3.15566 1 -7.36925 0.00735245 4
328 1 12.496 17.8215 1.77561 -2.54215 4.19784 -6.13694 1 -7.30584 0.0384325 4
329 1 12.48 19.6114 0 0 0 0 1 -3.34167 0 2
330 1 11.5886 18.72 0.891429 0 0 0 1 -6.98367 0 4
331 1 11.5894 20.5146 2.66901 12.744 -1.42883 -0.981191 1 -7.30514 0.102957 4
332 1 8.89665 19.6548 3.58767 1.43364 1.54597 -1.20079 1 -7.32616 0.00366438 4
333 1 10.6775 17.8412 3.55514 10.2086 2.02692 0.613067 1 -7.30735 0.0676581 4
334 1 12.498 19.582 3.53451 -2.88069 -5.15172 -1.12267 1 -7.27447 0.022469 4
335 1 16.0508 21.3831 1.76161 0.0290455 0.103287 2.72137 1 -7.29237 0.00461675 4
337 1 13.3855 18.7593 2.67112 -3.8718 -1.20141 -2.64424 1 -7.36366 0.0145811 4
338 1 13.3714 20.5029 0.891429 0 0 0 1 -7.04561 0 4
339 1 14.2629 17.8286 0 0 0 0 1 -3.33593 0 2
340 1 14.2768 19.6286 1.76578 -3.73433 -2.25892 -3.88411 1 -7.36572 0.021246 4
341 1 16.0888 17.8329 1.76297 -4.58991 -1.99561 0.829426 1 -7.27644 0.0160198 4
342 1 16.0457 19.6114 0 0 0 0 1 -3.31165 0 2
343 1 15.1543 18.72 0.891429 0 0 0 1 -7.01741 0 4
344 1 15.1609 20.5168 2.7115 3.84587 -5.7303 -1.73083 1 -7.3194 0.031509 4
345 1 16.9375 18.7581 2.6822 -8.62586 0.163112 -2.90216 1 -7.33162 0.0515709 4
346 1 16.9371 20.5029 0.891429 0 0 0 1 -7.02893 0 4
347 1 14.2833 17.8478 3.55754 3.40828 4.21958 -2.0095 1 -7.31744 0.0208259 4
348 1 16.0963 19.6326 3.60105 -5.30279 -5.50839 0.438588 1 -7.39854 0.036508 4
349 1 17.8502 21.342 3.6087 1.79618 -2.84027 2.01881 1 -7.3748 0.00956608 4
304 1 21.3479 17.8255 3.53897 -4.55982 -6.05844 2.01432 1 -7.35162 0.0383129 4
305 1 21.3471 19.6406 1.74961 -1.25351 -2.60852 1.09849 1 -7.32787 0.0059643 4
351 1 17.8286 17.8286 0 0 0 0 1 -3.31819 0 2
352 1 17.8183 19.6227 1.78507 2.95646 -1.59261 -6.8865 1 -7.35002 0.036537 4
353 1 19.6105 17.7805 1.77954 -1.40185 5.43227 2.60775 1 -7.31734 0.0238234 4
354 1 19.6114 19.6114 0 0 0 0 1 -3.33842 0 2
355 1 18.72 18.72 0.891429 0 0 0 1 -6.96637 0 4
356 1 18.7223 20.5059 2.69784 -4.02746 4.42918 -9.50424 1 -7.31309 0.0785307 4
357 1 20.4792 18.7373 2.67065 8.00143 -2.04193 -1.20923 1 -7.33272 0.0433549 4
358 1 20.5029 20.5029 0.891429 0 0 0 1 -7.04524 0 4
359 1 17.8272 17.8478 3.55422 -2.76841 -5.91473 8.14821 1 -7.36818 0.0678703 4
360 1 19.5807 19.6259 3.55474 6.18919 0.408511 3.29513 1 -7.3331 0.0307048 4
361 1 0.895583 0.885451 4.53291 -0.500623 -1.25639 5.52119 1 -7.36414 0.0201123 4
362 1 0.970735 2.65931 6.29487 -5.28125 1.60441 -0.974255 1 -7.36834 0.0195535 4
363 1 2.70064 0.912278 6.27887 1.05168 1.90814 5.13777 1 -7.31033 0.0193847 4
364 1 2.64621 2.68091 4.48247 -2.77973 -3.60106 -2.7667 1 -7.3278 0.0176452 4
365 1 3.59166 1.75225 5.33917 3.41389 -9.56617 11.3789 1 -7.31271 0.144805 4
366 1 1.82863 3.52574 5.40982 3.72281 -2.04954 7.20428 1 -7.27619 0.043546 4
367 1 1.80735 1.78492 7.18746 4.019 -1.08952 4.10412 1 -7.31325 0.0212765 4
368 1 0.887364 0.885215 8.05925 -2.89977 4.57373 -3.22797 1 -7.36575 0.0247399 4
369 1 2.73101 2.73939 8.06256 6.42332 -6.22944 6.37238 1 -7.25976 0.0751095 4
370 1 3.62101 3.59253 7.13165 -0.553774 1.89377 8.43439 1 -7.32052 0.0467019 4
411 1 0.0224533 1.82052 5.41856 -4.55116 -0.0624624 -2.00652 1 -7.31931 0.0154008 4
371 1 0.0357594 3.60261 7.146 5.02449 5.86138 -1.77222 1 -7.3033 0.0390523 4
372 1 4.47407 0.945992 4.46088 7.11176 -2.94941 -7.11171 1 -7.3386 0.068375 4
373 1 4.46253 2.67664 6.22803 7.95721 -3.31247 -2.94844 1 -7.29682 0.0516508 4
374 1 6.2991 0.896832 6.27312 0.550222 -3.86738 1.2377 1 -7.3114 0.0104513 4
375 1 6.23549 2.67485 4.46413 2.6419 -3.92968 -2.67613 1 -7.37456 0.0184137 4
376 1 7.12754 1.77026 5.32732 -5.41577 -0.841095 -3.90312 1 -7.32274 0.0281787 4
377 1 8.03563 0.887811 4.41388 11.4885 3.10859 -2.29631 1 -7.37275 0.0914486 4
378 1 8.04449 2.67162 6.26555 2.80322 -1.81666 4.07595 1 -7.25976 0.0172859 4
379 1 5.36082 3.59128 5.34838 -1.8907 -0.372635 -2.30014 1 -7.36459 0.00560446 4
380 1 5.34792 1.79892 7.16202 2.73886 -6.48699 1.96003 1 -7.29907 0.0332526 4
381 1 4.46107 0.903454 8.02498 0.650518 -0.579209 1.99861 1 -7.33762 0.00295845 4
382 1 6.27231 2.7395 8.01607 -9.78093 1.24274 2.15999 1 -7.33535 0.0634106 4
383 1 8.10266 0.8988 8.06771 -5.39862 3.44591 2.16316 1 -7.3037 0.028444 4
384 1 7.13562 3.55684 7.14326 -7.35954 3.72931 -5.18807 1 -7.36699 0.0591222 4
665 1 7.17885 0.00985311 7.15125 5.28714 -0.492332 -2.2877 1 -7.36084 0.0208076 4
385 1 5.3426 0.0236051 5.40356 -1.07874 -5.03822 -9.77224 1 -7.26405 0.0759633 4
386 1 9.81149 0.886878 6.31898 0.37215 3.62759 -0.0363509 1 -7.32423 0.00827778 4
387 1 9.82861 2.68591 4.47958 -5.07631 -3.49717 -4.03143 1 -7.3576 0.0337676 4
388 1 10.6755 1.76907 5.40246 -4.2137 -4.30806 -0.967283 1 -7.35293 0.0231856 4
389 1 11.5826 0.8758 4.52848 -0.881705 -4.61518 3.58074 1 -7.31736 0.0217221 4
390 1 11.5821 2.65638 6.275 -2.30077 3.28377 1.32991 1 -7.31638 0.0111074 4
391 1 8.97665 3.6029 5.3401 0.28293 -4.09836 -0.939861 1 -7.28611 0.0110542 4
392 1 12.4723 3.57805 5.36233 10.6585 0.0440963 -0.135731 1 -7.40328 0.0707222 4
393 1 8.96559 1.77124 7.18216 2.12742 5.55948 -1.55608 1 -7.33478 0.023562 4
394 1 9.83042 2.70059 8.08037 2.18836 4.7735 9.97959 1 -7.3217 0.0791524 4
395 1 12.4702 1.74843 7.16148 1.05122 8.61755 -6.50879 1 -7.38344 0.0732792 4
396 1 11.5757 0.871368 8.03048 -2.96752 -2.29068 -6.26534 1 -7.29051 0.0331802 4
397 1 10.6928 3.57453 7.13758 4.02623 -5.71012 6.57791 1 -7.35157 0.0573161 4
679 1 8.9232 0.0266149 5.33986 -0.404456 -4.92208 0.814836 1 -7.26477 0.0155945 4
398 1 13.3663 0.838736 6.26752 -0.762703 -0.0147745 0.720857 1 -7.34572 0.000685646 4
399 1 13.3628 2.69819 4.49247 0.474767 2.44039 -1.73108 1 -7.30711 0.00571234 4
400 1 14.2554 1.76044 5.40103 0.129719 -2.93381 -6.88441 1 -7.31297 0.0348678 4
401 1 15.1931 0.889026 4.49482 5.46482 5.86555 1.49229 1 -7.30332 0.0413888 4
402 1 15.0921 2.69307 6.27942 -6.82617 1.1554 4.36556 1 -7.37465 0.0416962 4
403 1 16.9421 0.92571 6.29614 -4.06361 -5.25508 3.41676 1 -7.36619 0.0347333 4
404 1 16.9434 2.71325 4.50323 2.28405 4.52239 -4.18422 1 -7.31374 0.0268742 4
405 1 16.0293 3.5552 5.40887 0.181687 0.768021 -2.07889 1 -7.38362 0.00307767 4
406 1 13.3441 2.64887 8.05607 1.13365 -5.34372 7.16892 1 -7.32612 0.0505621 4
407 1 16.0294 1.8164 7.18592 3.00848 -12.362 -0.452006 1 -7.28007 0.100879 4
408 1 15.1313 0.892728 8.0252 0.985561 -1.68471 -2.1034 1 -7.39609 0.00512497 4
409 1 16.967 2.68126 8.09531 3.8024 11.6774 -0.523837 1 -7.39887 0.0940449 4
410 1 14.2566 3.58465 7.13433 8.53908 -0.36067 6.81498 1 -7.3393 0.0743736 4
694 1 16.0827 0.00964637 5.40829 4.7162 -1.45761 3.60438 1 -7.32553 0.023253 4
412 1 17.8572 1.81841 5.40256 -2.408 3.68348 -10.1048 1 -7.34485 0.075608 4
413 1 18.7156 0.895769 4.48158 1.71115 2.89281 -5.68705 1 -7.33063 0.0271621 4
414 1 18.7459 2.72407 6.27515 -1.03252 -4.84346 3.94551 1 -7.32694 0.0249545 4
415 1 20.5447 0.890031 6.30306 1.54298 5.65433 4.00153 1 -7.34601 0.0313482 4
416 1 20.5033 2.67989 4.52378 6.284 3.16165 -3.45062 1 -7.32618 0.0382116 4
417 1 19.6178 3.59623 5.34384 -0.200099 -1.94145 1.4254 1 -7.38843 0.00363561 4
418 1 19.6349 1.79307 7.20452 3.21032 -7.86433 -0.833926 1 -7.29402 0.0453433 4
419 1 18.7174 0.875608 8.09015 -0.799487 2.70047 1.49707 1 -7.31175 0.00633189 4
420 1 20.5407 2.71258 8.0858 -0.213433 4.2214 -1.51463 1 -7.25773 0.012548 4
421 1 17.8356 3.57262 7.19361 7.54279 -1.47845 3.2252 1 -7.33182 0.0432471 4
709 1 17.7443 0.0527031 7.15294 7.06726 -1.67945 6.23898 1 -7.18938 0.0570712 4
422 1 19.6556 0.00634605 5.39941 11.193 -5.19513 3.24516 1 -7.2971 0.101333 4
423 1 0.94149 4.50197 4.4703 0.11308 -3.07436 6.38993 1 -7.27553 0.0313054 4
424 1 0.887448 6.28143 6.30124 0.214541 -1.21605 0.0565822 1 -7.32177 0.000951076 4
425 1 2.73118 4.50871 6.24346 1.65442 -1.87207 -0.670907 1 -7.26407 0.0041652 4
426 1 2.67339 6.25953 4.52837 4.30585 -9.94536 -2.97851 1 -7.36681 0.0786262 4
427 1 3.56868 5.36203 5.37147 3.99652 1.72153 3.68407 1 -7.42241 0.020234 4
428 1 1.77729 7.13077 5.34724 -3.6344 1.36201 5.45156 1 -7.24611 0.0278744 4
429 1 0.912315 8.05371 4.45884 1.17916 -3.54208 -7.24096 1 -7.30609 0.0413094 4
430 1 2.718 8.07072 6.25112 -1.34853 -0.695998 4.97424 1 -7.22546 0.0168342 4
431 1 1.80447 5.3818 7.18689 -0.581045 -0.780281 3.26313 1 -7.30145 0.0072167 4
432 1 0.906745 4.46655 8.09164 -13.8753 -6.73716 2.473 1 -7.31611 0.15189 4