ITEM: TIMESTEP
49125825
ITEM: NUMBER OF ATOMS
3060
ITEM: BOX BOUNDS pp pp mm
0.0000000000000000e+00 2.1394294200000001e+01
0.0000000000000000e+00 2.1394294200000001e+01
-5.3491084073550004e-03 5.3485735499999997e+01
ITEM: ATOMS id type x y z vx vy vz c_clusts c_atom_pe c_atom_ke c_atom_coord
1 1 0 0 0 0 0 0 1 -3.3278 0 2
2 1 1.78286 1.78286 0 0 0 0 1 -3.3159 0 2
3 1 0.891429 0.891429 0.891429 0 0 0 1 -7.01869 0 4
4 1 0.880975 2.73317 2.68343 -3.9674 -7.835 4.70235 1 -7.28807 0.0617693 4
5 1 2.64593 0.896724 2.62501 -7.21703 -6.15774 -2.58124 1 -7.31078 0.0601675 4
6 1 2.67429 2.67429 0.891429 0 0 0 1 -7.03405 0 4
7 1 3.56572 0 0 0 0 0 1 -3.34426 0 2
8 1 3.56332 1.77616 1.76809 -2.56196 -5.30813 -8.65769 1 -7.37321 0.0682773 4
9 1 0 3.56572 0 0 0 0 1 -3.31372 0 2
10 1 1.76997 3.55124 1.78901 -3.53802 -2.42415 -3.53135 1 -7.34496 0.0192109 4
11 1 3.56572 3.56572 0 0 0 0 1 -3.33848 0 2
12 1 1.83344 1.81094 3.58828 3.13985 4.0507 0.824424 1 -7.26496 0.0167722 4
13 1 3.61395 3.60989 3.5931 4.17549 -7.56981 4.63975 1 -7.33528 0.0599172 4
292 1 1.79587 0.00968006 1.77892 5.33631 -0.933388 -3.27153 1 -7.40214 0.0249284 4
56 1 0.0175564 3.62004 3.58208 2.14188 -0.95682 -0.237692 1 -7.32965 0.00346049 4
55 1 0.00254129 1.8068 1.78405 -4.26656 3.13772 -2.01913 1 -7.35804 0.0199959 4
291 1 3.55797 -0.0159121 3.53833 0.047901 -9.00422 2.38909 1 -7.29717 0.0540179 4
350 1 0.0049919 0.0178868 3.53462 1.47817 4.3506 -3.992 1 -7.31678 0.0230601 4
14 1 5.34857 1.78286 0 0 0 0 1 -3.32044 0 2
15 1 4.45714 0.891429 0.891429 0 0 0 1 -7.01789 0 4
16 1 4.46474 2.6182 2.72183 -3.16125 -8.02117 -1.57127 1 -7.30061 0.0478033 4
17 1 6.25886 0.882566 2.69128 0.380509 2.85809 -0.768075 1 -7.39362 0.0055417 4
18 1 6.24 2.67429 0.891429 0 0 0 1 -6.98358 0 4
19 1 7.13143 0 0 0 0 0 1 -3.3167 0 2
20 1 7.15501 1.7666 1.74996 -4.38882 -1.50078 2.95033 1 -7.30766 0.0188088 4
21 1 8.02286 0.891429 0.891429 0 0 0 1 -7.05194 0 4
22 1 7.99216 2.65577 2.66025 8.16026 6.86157 -2.31859 1 -7.3376 0.0740978 4
23 1 5.34818 3.55657 1.82839 -1.4465 -5.53291 3.52575 1 -7.25678 0.028094 4
24 1 7.13143 3.56572 0 0 0 0 1 -3.3387 0 2
25 1 5.4074 1.7335 3.56029 -0.788025 -2.42286 6.10187 1 -7.35166 0.027215 4
26 1 7.12141 3.52619 3.52676 -1.81949 -2.73244 1.08525 1 -7.34304 0.00744082 4
306 1 7.20651 -0.0101498 3.51783 -6.23274 -10.5127 7.35435 1 -7.30756 0.126632 4
28 1 8.91429 1.78286 0 0 0 0 1 -3.33774 0 2
29 1 9.83094 0.829472 2.66278 -3.49487 -5.34544 3.08121 1 -7.31618 0.0312966 4
30 1 9.80572 2.67429 0.891429 0 0 0 1 -7.01798 0 4
31 1 10.6971 0 0 0 0 0 1 -3.34116 0 2
32 1 10.6699 1.75354 1.7903 -4.45297 2.59907 -4.33466 1 -7.34412 0.0282416 4
33 1 12.48 1.78286 0 0 0 0 1 -3.33163 0 2
34 1 11.5886 0.891429 0.891429 0 0 0 1 -7.00216 0 4
35 1 11.57 2.6873 2.6695 1.09243 3.05058 0.449729 1 -7.33528 0.00666102 4
36 1 8.95351 3.53966 1.79304 1.76424 -4.70243 0.785162 1 -7.31939 0.0160846 4
37 1 10.6971 3.56572 0 0 0 0 1 -3.35142 0 2
38 1 12.4895 3.56039 1.77609 -1.39587 -4.64007 -8.11635 1 -7.39225 0.0556162 4
39 1 8.90561 1.75759 3.57387 -4.32373 -3.06393 8.33665 1 -7.22471 0.0607376 4
40 1 12.4658 1.7972 3.53483 10.1801 -4.90914 -10.5519 1 -7.35679 0.148808 4
41 1 10.695 3.55519 3.58009 6.4296 4.75046 0.55473 1 -7.36683 0.0399687 4
319 1 10.711 -0.057092 3.57089 -7.68465 -6.20736 -1.40616 1 -7.35513 0.0619703 4
42 1 13.3849 0.889029 2.67971 -5.98907 1.12917 0.66748 1 -7.35256 0.0233967 4
43 1 13.3714 2.67429 0.891429 0 0 0 1 -7.02469 0 4
44 1 14.2629 0 0 0 0 0 1 -3.30806 0 2
45 1 14.2478 1.75621 1.76726 2.89243 -5.34698 0.618347 1 -7.31867 0.0232406 4
46 1 16.0457 1.78286 0 0 0 0 1 -3.33679 0 2
47 1 15.1543 0.891429 0.891429 0 0 0 1 -7.017 0 4
48 1 15.1517 2.68514 2.69702 -6.21821 -2.93 -3.31323 1 -7.33197 0.036243 4
49 1 16.8967 0.909662 2.6723 0.518297 1.27665 -2.77437 1 -7.35562 0.00597254 4
50 1 16.9371 2.67429 0.891429 0 0 0 1 -7.01318 0 4
51 1 14.2629 3.56572 0 0 0 0 1 -3.3319 0 2
52 1 16.0342 3.56459 1.76982 -6.86268 5.46776 -1.92617 1 -7.34917 0.0502317 4
53 1 15.9991 1.80144 3.55496 -2.30618 -7.94575 0.56687 1 -7.36325 0.0428072 4
54 1 14.2814 3.58705 3.54687 0.219106 -3.59616 -2.42126 1 -7.37041 0.0117283 4
336 1 14.2932 -0.0264023 3.53532 -5.41039 -0.705028 -3.98762 1 -7.3935 0.0284265 4
57 1 17.8286 0 0 0 0 0 1 -3.33573 0 2
58 1 17.7991 1.81214 1.78021 1.00495 5.42832 4.0833 1 -7.31648 0.0293473 4
59 1 19.6114 1.78286 0 0 0 0 1 -3.33773 0 2
60 1 18.72 0.891429 0.891429 0 0 0 1 -7.00276 0 4
61 1 18.7496 2.71206 2.67815 12.6912 -4.60318 0.217538 1 -7.3101 0.113471 4
62 1 20.5145 0.941324 2.63619 0.290676 0.481941 2.10113 1 -7.34845 0.00294502 4
63 1 20.5029 2.67429 0.891429 0 0 0 1 -7.00754 0 4
64 1 17.8286 3.56572 0 0 0 0 1 -3.34004 0 2
65 1 19.6402 3.57195 1.79917 4.10898 -0.0848788 -1.51253 1 -7.38854 0.0119373 4
66 1 19.618 1.81923 3.57217 -2.47271 -5.4032 2.42121 1 -7.38671 0.025626 4
67 1 17.8678 3.56141 3.58706 1.61318 -1.36063 -0.425388 1 -7.33516 0.00288472 4
68 1 19.6238 0.0193087 1.76133 -2.20862 2.27498 -2.1201 1 -7.35454 0.00905528 4
349 1 17.8357 0.0435571 3.54264 -1.24761 -4.85533 0.899007 1 -7.31275 0.0161451 4
69 1 1.78286 5.34857 0 0 0 0 1 -3.33527 0 2
70 1 0.891429 4.45714 0.891429 0 0 0 1 -7.02051 0 4
71 1 0.881567 6.16515 2.632 7.69604 -4.18758 4.49794 1 -7.3016 0.060373 4
72 1 2.67885 4.38984 2.71383 4.5859 -3.10848 7.53202 1 -7.35855 0.0544152 4
73 1 2.67429 6.24 0.891429 0 0 0 1 -7.03038 0 4
74 1 3.53789 5.34497 1.80687 4.40502 -3.79495 -1.6665 1 -7.31519 0.0227703 4
75 1 0 7.13143 0 0 0 0 1 -3.33894 0 2
76 1 1.77211 7.11725 1.74239 -4.67409 -5.71735 -5.32419 1 -7.32222 0.051588 4
77 1 0.891429 8.02286 0.891429 0 0 0 1 -7.04511 0 4
78 1 2.6624 8.03039 2.66633 4.10044 6.38841 -4.34651 1 -7.32246 0.0476265 4
79 1 3.56572 7.13143 0 0 0 0 1 -3.33959 0 2
80 1 1.7745 5.29152 3.5892 -2.09534 -2.54893 -2.33384 1 -7.27616 0.0101669 4
81 1 3.57307 7.13543 3.57218 -3.77741 3.48685 4.31542 1 -7.31203 0.0280402 4
128 1 -0.0158032 5.31951 1.76356 -4.18286 -1.03335 -2.93455 1 -7.38703 0.0169149 4
82 1 0.0263353 7.09464 3.56353 -8.43719 -2.15232 2.30804 1 -7.22949 0.0505072 4
83 1 5.34857 5.34857 0 0 0 0 1 -3.35866 0 2
84 1 4.45714 4.45714 0.891429 0 0 0 1 -6.94205 0 4
85 1 4.48206 6.20301 2.67285 -1.9574 -8.15725 -1.65854 1 -7.31462 0.0455136 4
86 1 6.25895 4.48045 2.65352 -0.671177 2.32287 -1.67948 1 -7.32159 0.00539448 4
87 1 6.24 6.24 0.891429 0 0 0 1 -7.03074 0 4
88 1 7.14868 5.38633 1.75622 2.19512 4.97755 -7.66444 1 -7.3718 0.054984 4
89 1 8.02286 4.45714 0.891429 0 0 0 1 -6.9671 0 4
90 1 8.03303 6.26313 2.6595 5.90545 -2.21961 7.72351 1 -7.40808 0.0619025 4
91 1 5.36468 7.13545 1.77641 -4.99328 -2.2943 -0.750284 1 -7.34772 0.0191456 4
92 1 4.45714 8.02286 0.891429 0 0 0 1 -7.01525 0 4
93 1 6.2104 8.02772 2.71135 -13.3965 1.54867 -6.12508 1 -7.27923 0.136548 4
94 1 7.13143 7.13143 0 0 0 0 1 -3.32059 0 2
95 1 8.02286 8.02286 0.891429 0 0 0 1 -7.03604 0 4
96 1 5.38723 5.37004 3.58195 5.31746 6.18311 -9.08099 1 -7.33906 0.0927232 4
97 1 7.18727 7.12778 3.55539 -0.643131 -1.08642 3.53087 1 -7.32319 0.00875192 4
98 1 8.91429 5.34857 0 0 0 0 1 -3.31793 0 2
99 1 9.82332 4.43024 2.66488 -6.15783 -0.724629 1.76688 1 -7.38008 0.0258716 4
100 1 9.80572 6.24 0.891429 0 0 0 1 -7.00592 0 4
101 1 10.73 5.31736 1.78962 -4.37729 -2.93809 -1.8515 1 -7.35371 0.0194328 4
102 1 12.48 5.34857 0 0 0 0 1 -3.34 0 2
103 1 11.5886 4.45714 0.891429 0 0 0 1 -7.02171 0 4
104 1 11.6221 6.23785 2.67737 0.699385 -1.00693 3.28579 1 -7.3913 0.00765551 4
105 1 8.96178 7.13506 1.73699 -0.732121 -1.82645 5.44444 1 -7.32853 0.0208599 4
106 1 9.81379 8.02223 2.65423 9.32338 7.05084 -5.39537 1 -7.37052 0.103167 4
107 1 10.6971 7.13143 0 0 0 0 1 -3.30267 0 2
108 1 12.4979 7.08689 1.81679 1.61265 -4.7236 4.85181 1 -7.34729 0.0301584 4
109 1 11.5886 8.02286 0.891429 0 0 0 1 -6.95453 0 4
110 1 8.89679 5.32901 3.50148 3.14872 -5.11734 4.29011 1 -7.27389 0.0339264 4
111 1 12.4689 5.36166 3.58861 -4.09061 1.77322 3.37683 1 -7.28457 0.0194697 4
112 1 10.7037 7.13135 3.5725 1.60821 8.65471 3.84294 1 -7.36632 0.0574241 4
113 1 13.382 4.40178 2.66337 2.54032 -5.02374 5.79051 1 -7.30683 0.0405954 4
114 1 13.3714 6.24 0.891429 0 0 0 1 -7.02452 0 4
115 1 14.2394 5.36066 1.78872 -7.43223 6.49762 -12.0331 1 -7.25964 0.150784 4
116 1 16.0457 5.34857 0 0 0 0 1 -3.33546 0 2
117 1 15.1543 4.45714 0.891429 0 0 0 1 -6.9789 0 4
118 1 15.2025 6.26072 2.63977 -0.551024 5.76592 2.53658 1 -7.25057 0.0248869 4
119 1 16.9718 4.45002 2.63706 3.21922 -3.9901 5.18204 1 -7.27962 0.0330744 4
120 1 16.9371 6.24 0.891429 0 0 0 1 -7.02451 0 4
121 1 13.3873 7.98427 2.6978 0.107365 1.07269 1.66984 1 -7.3625 0.00245893 4
122 1 14.2629 7.13143 0 0 0 0 1 -3.36199 0 2
123 1 16.0771 7.14851 1.75193 2.7212 -4.50528 -4.58589 1 -7.35048 0.0303326 4
124 1 15.1543 8.02286 0.891429 0 0 0 1 -7.0232 0 4
125 1 16.953 8.05603 2.73199 -1.16738 -6.65984 -4.79527 1 -7.25652 0.0427674 4
126 1 16.0421 5.32723 3.57787 -8.33866 7.63963 -0.102908 1 -7.2774 0.0796131 4
127 1 14.2604 7.10683 3.56406 1.5178 -2.26626 6.07828 1 -7.31886 0.0276264 4
129 1 17.8272 5.32753 1.77189 0.870798 0.205927 -4.23073 1 -7.40646 0.0116392 4
130 1 19.6114 5.34857 0 0 0 0 1 -3.30633 0 2
131 1 18.72 4.45714 0.891429 0 0 0 1 -6.99822 0 4
132 1 18.7037 6.24356 2.65156 2.9534 -2.50554 -1.93595 1 -7.37485 0.0116694 4
133 1 20.5014 4.46362 2.6474 -3.45802 -2.63115 -4.34591 1 -7.33199 0.0235076 4
134 1 20.5029 6.24 0.891429 0 0 0 1 -7.00323 0 4
135 1 17.8286 7.13143 0 0 0 0 1 -3.32568 0 2
136 1 19.5607 7.11711 1.7808 -1.79438 -4.98645 5.44984 1 -7.33305 0.0359671 4
137 1 18.72 8.02286 0.891429 0 0 0 1 -7.0187 0 4
138 1 20.4967 8.04226 2.65925 -5.8216 -0.268772 -0.564992 1 -7.29444 0.0213383 4
139 1 19.6142 5.34776 3.59093 3.8811 -1.52007 2.43541 1 -7.27613 0.0145055 4
140 1 17.8586 7.14341 3.58925 7.0811 5.71749 4.44945 1 -7.35427 0.0638791 4
141 1 1.78286 8.91429 0 0 0 0 1 -3.34118 0 2
142 1 0.900192 9.82122 2.62407 0.519399 -3.31881 3.46205 1 -7.3019 0.0144839 4
143 1 2.67429 9.80572 0.891429 0 0 0 1 -7.00223 0 4
144 1 3.54667 8.92217 1.76241 3.34891 -4.36435 3.02049 1 -7.32521 0.024515 4
145 1 0 10.6971 0 0 0 0 1 -3.32916 0 2
146 1 1.79788 10.705 1.80871 -3.11988 2.27302 -2.56834 1 -7.36426 0.0133801 4
147 1 1.78286 12.48 0 0 0 0 1 -3.3147 0 2
148 1 0.891429 11.5886 0.891429 0 0 0 1 -7.00949 0 4
149 1 2.69115 11.5738 2.65429 -5.0491 -0.675231 -1.70823 1 -7.3632 0.0179678 4
150 1 3.56572 10.6971 0 0 0 0 1 -3.34975 0 2
151 1 3.62236 12.45 1.76754 -7.78706 -5.33045 -3.0319 1 -7.32225 0.0611499 4
152 1 1.77078 8.91649 3.59612 6.31963 4.38054 1.88412 1 -7.25318 0.0390117 4
153 1 1.86324 12.4827 3.53592 3.97467 0.550698 -2.1399 1 -7.37411 0.012872 4
154 1 3.58351 10.6741 3.53525 -1.87954 1.62351 -14.4492 1 -7.27134 0.133789 4
205 1 0.021523 8.88733 1.77539 7.79864 -5.71945 -1.6322 1 -7.39865 0.0598743 4
204 1 0.0274687 12.5029 1.75508 12.8013 -1.76385 -1.01066 1 -7.32105 0.104571 4
155 1 5.34857 8.91429 0 0 0 0 1 -3.32951 0 2
156 1 4.48382 9.831 2.65022 -4.32886 1.35367 -2.09691 1 -7.30062 0.015541 4
157 1 6.24 9.80572 0.891429 0 0 0 1 -6.98691 0 4
158 1 7.14477 8.91291 1.77023 -13.462 -5.50373 -1.71209 1 -7.32784 0.133477 4
159 1 7.98301 9.82303 2.67397 -2.86615 -4.58675 -7.67487 1 -7.37794 0.0548711 4
160 1 5.34728 10.73 1.77437 3.34089 -2.36412 4.00194 1 -7.38472 0.0203945 4
161 1 5.34857 12.48 0 0 0 0 1 -3.31954 0 2
162 1 4.45714 11.5886 0.891429 0 0 0 1 -7.04198 0 4
163 1 6.24285 11.5863 2.67734 -0.058501 3.49003 -1.47139 1 -7.38323 0.00893102 4
164 1 7.13143 10.6971 0 0 0 0 1 -3.32404 0 2
165 1 7.13275 12.4734 1.77542 -4.59099 -3.08104 5.68918 1 -7.31825 0.0391735 4
166 1 8.02286 11.5886 0.891429 0 0 0 1 -7.02696 0 4
167 1 5.3271 8.88733 3.5862 -4.96734 -3.20952 2.84999 1 -7.34955 0.0268253 4
168 1 5.38985 12.4962 3.55026 -9.49983 -0.450363 -0.199884 1 -7.36737 0.0563231 4
169 1 7.11724 10.6736 3.5403 -0.813854 3.89317 1.35063 1 -7.35219 0.0109817 4
170 1 8.91429 8.91429 0 0 0 0 1 -3.30259 0 2
171 1 9.80572 9.80572 0.891429 0 0 0 1 -7.00002 0 4
172 1 10.661 8.9308 1.74885 -0.561626 7.77893 -1.27456 1 -7.32917 0.0388715 4
173 1 12.48 8.91429 0 0 0 0 1 -3.34298 0 2
174 1 11.5868 9.80107 2.66855 6.66431 3.39765 5.54171 1 -7.28189 0.0539442 4
175 1 8.86916 10.7388 1.78173 -4.07851 -1.94089 0.444696 1 -7.33853 0.0128214 4
176 1 8.91429 12.48 0 0 0 0 1 -3.34582 0 2
177 1 9.78941 11.6019 2.64914 7.33112 0.45986 -1.40043 1 -7.38561 0.0348049 4
178 1 10.6971 10.6971 0 0 0 0 1 -3.33208 0 2
179 1 10.6931 12.4544 1.80432 5.67823 -1.4497 -1.89314 1 -7.34863 0.0236073 4
180 1 12.5053 10.6887 1.78405 5.47835 2.15797 -0.941229 1 -7.31472 0.0221304 4
181 1 12.48 12.48 0 0 0 0 1 -3.3373 0 2
182 1 11.5886 11.5886 0.891429 0 0 0 1 -6.98762 0 4
183 1 8.91412 8.93628 3.53129 -1.73689 -1.01925 5.16602 1 -7.34572 0.0191355 4
184 1 12.5071 8.86668 3.55235 4.23459 9.02164 11.3458 1 -7.31679 0.141944 4
185 1 8.92214 12.5007 3.55969 -0.866018 4.4428 -6.26555 1 -7.29196 0.0371872 4
186 1 10.6891 10.7365 3.55857 5.19761 -2.86837 -3.53058 1 -7.30406 0.0296945 4
187 1 12.501 12.5 3.5914 0.125982 13.9493 2.16744 1 -7.4163 0.124048 4
188 1 13.3714 9.80572 0.891429 0 0 0 1 -7.02652 0 4
189 1 14.2904 8.90379 1.79701 -0.0984215 2.71154 0.635183 1 -7.35104 0.00483351 4
190 1 16.0457 8.91429 0 0 0 0 1 -3.3474 0 2
191 1 15.1679 9.76056 2.70663 -2.85743 2.75636 -5.68062 1 -7.26013 0.0298963 4
192 1 16.9371 9.80572 0.891429 0 0 0 1 -6.98145 0 4
193 1 13.3851 11.5978 2.70169 -2.34317 2.17269 -3.32573 1 -7.3508 0.01324 4
194 1 14.2629 10.6971 0 0 0 0 1 -3.34822 0 2
195 1 14.2815 12.4666 1.77663 -4.58506 0.916364 -6.68874 1 -7.31348 0.0414547 4
196 1 16.0869 10.7554 1.77152 -5.5796 0.720846 -2.89725 1 -7.24777 0.0249254 4
197 1 16.0457 12.48 0 0 0 0 1 -3.31507 0 2
198 1 15.1543 11.5886 0.891429 0 0 0 1 -7.05936 0 4
199 1 16.9392 11.5995 2.70631 2.43608 -9.30167 6.77993 1 -7.40217 0.0861581 4
200 1 16.0629 8.86012 3.57453 -5.2629 -4.86563 1.81175 1 -7.38287 0.0340187 4
201 1 14.2723 10.6895 3.53676 8.85133 0.479125 -0.0268261 1 -7.25468 0.0489079 4
202 1 16.0758 12.4776 3.59114 4.21567 -1.40773 -0.664689 1 -7.34392 0.0125701 4
203 1 21.4602 10.7556 3.53724 5.75992 -1.62525 2.70236 1 -7.26754 0.0268395 4
206 1 17.8604 8.94026 1.80595 3.41026 4.08855 -2.89144 1 -7.33964 0.0228472 4
207 1 19.6114 8.91429 0 0 0 0 1 -3.35044 0 2
208 1 18.7102 9.82415 2.71126 0.185106 -2.38877 7.25306 1 -7.3016 0.0363169 4
209 1 20.5029 9.80572 0.891429 0 0 0 1 -6.99866 0 4
210 1 17.8286 10.6971 0 0 0 0 1 -3.31685 0 2
211 1 17.8134 12.4949 1.80762 0.93855 1.50627 -5.93637 1 -7.33834 0.0238951 4
212 1 19.6732 10.7202 1.77614 1.10077 -2.22539 1.44308 1 -7.26225 0.00513287 4
213 1 19.6114 12.48 0 0 0 0 1 -3.30374 0 2
214 1 18.72 11.5886 0.891429 0 0 0 1 -6.9574 0 4
215 1 20.5445 11.6509 2.69027 -2.90714 3.50795 3.61596 1 -7.31609 0.0210581 4
216 1 19.6116 8.95919 3.58094 6.75053 -3.45607 4.96054 1 -7.34965 0.0511143 4
217 1 17.8632 10.6973 3.5802 -5.96432 -0.827625 2.44659 1 -7.36502 0.0262937 4
218 1 19.6114 12.4902 3.57132 -3.39002 -2.97114 7.13807 1 -7.41387 0.0443615 4
219 1 0.930416 13.388 2.66166 0.0581183 0.0691213 0.934189 1 -7.33475 0.000548273 4
220 1 2.67429 13.3714 0.891429 0 0 0 1 -6.99367 0 4
221 1 0 14.2629 0 0 0 0 1 -3.32614 0 2
222 1 1.78312 14.256 1.76239 4.47322 -4.05146 -1.2974 1 -7.33426 0.0237189 4
223 1 1.78286 16.0457 0 0 0 0 1 -3.32854 0 2
224 1 0.891429 15.1543 0.891429 0 0 0 1 -7.04341 0 4
225 1 0.870493 16.9347 2.66479 -1.46222 -3.63916 4.2926 1 -7.32019 0.021043 4
226 1 2.67097 15.1926 2.67319 3.32878 -8.5891 6.46433 1 -7.30178 0.0788246 4
227 1 2.67429 16.9371 0.891429 0 0 0 1 -7.0277 0 4
228 1 3.56572 14.2629 0 0 0 0 1 -3.31616 0 2
229 1 3.53981 16.0883 1.76151 -1.84252 3.35871 -5.76284 1 -7.32756 0.0298056 4
230 1 1.76807 16.0681 3.54635 1.26251 -2.53903 1.45281 1 -7.3159 0.00631842 4
231 1 3.57903 14.2322 3.53252 -3.0446 -7.32612 -3.90114 1 -7.34055 0.0486492 4
233 1 0.00165081 16.0259 1.74474 5.61077 3.34795 0.886365 1 -7.35119 0.0270601 4
232 1 0.00398354 14.2455 3.56059 -2.71811 -5.10089 -10.5295 1 -7.37191 0.0898024 4
234 1 4.46914 13.3449 2.66713 6.18717 3.42595 1.10342 1 -7.39028 0.0318904 4
235 1 6.24 13.3714 0.891429 0 0 0 1 -6.99579 0 4
236 1 8.04415 13.407 2.68236 -7.58028 0.464493 -0.23606 1 -7.32438 0.0359339 4
237 1 5.32389 14.2761 1.7668 6.15157 -0.821777 -3.51858 1 -7.36278 0.0316799 4
238 1 5.34857 16.0457 0 0 0 0 1 -3.34097 0 2
239 1 4.45714 15.1543 0.891429 0 0 0 1 -7.03494 0 4
240 1 4.43834 16.9857 2.7094 5.23305 -4.67292 -6.50297 1 -7.32924 0.056958 4
241 1 6.22917 15.159 2.68008 -6.51894 3.31188 4.19874 1 -7.32986 0.0442511 4
242 1 6.24 16.9371 0.891429 0 0 0 1 -7.01594 0 4
243 1 7.13143 14.2629 0 0 0 0 1 -3.3435 0 2
244 1 7.16505 16.0617 1.78069 -3.33229 1.47376 -4.0419 1 -7.28543 0.018432 4
245 1 8.02286 15.1543 0.891429 0 0 0 1 -6.9945 0 4
246 1 8.04425 16.9368 2.72443 8.44217 1.42764 -1.14578 1 -7.36973 0.0464462 4
247 1 5.35437 16.0647 3.58146 6.1037 7.0383 -1.89231 1 -7.29824 0.0562509 4
248 1 7.13471 14.3029 3.53082 2.44604 -3.95121 2.99373 1 -7.37611 0.0190199 4
249 1 9.80572 13.3714 0.891429 0 0 0 1 -7.01761 0 4
250 1 11.6314 13.3468 2.67442 1.39508 -5.9086 6.59911 1 -7.35153 0.0500469 4
251 1 8.96098 14.2504 1.78124 -5.74381 1.62698 -3.0458 1 -7.31004 0.0279565 4
252 1 8.91429 16.0457 0 0 0 0 1 -3.31726 0 2
253 1 9.8505 15.1862 2.69424 -4.83654 -1.49238 2.51505 1 -7.38255 0.0198833 4
254 1 9.80572 16.9371 0.891429 0 0 0 1 -7.03826 0 4
255 1 10.6971 14.2629 0 0 0 0 1 -3.34467 0 2
256 1 10.6919 16.06 1.78142 -9.40072 -0.691429 -2.14305 1 -7.30234 0.0581622 4
257 1 12.4695 14.3012 1.77241 -0.125521 1.38086 5.47583 1 -7.28481 0.0198599 4
258 1 12.48 16.0457 0 0 0 0 1 -3.32208 0 2
259 1 11.5886 15.1543 0.891429 0 0 0 1 -7.03377 0 4
260 1 11.6477 16.9438 2.70536 -11.3476 -1.02138 1.64899 1 -7.32665 0.08249 4
261 1 8.9516 16.0706 3.57436 -7.02962 -8.31501 -8.12301 1 -7.39876 0.114861 4
262 1 10.7506 14.2972 3.52016 -3.31369 -4.56107 7.70662 1 -7.23365 0.0567503 4
263 1 12.4644 16.087 3.59652 6.11302 6.02901 0.0777131 1 -7.26937 0.0458878 4
264 1 13.3714 13.3714 0.891429 0 0 0 1 -6.96908 0 4
265 1 15.1483 13.4122 2.70099 -0.553901 2.37657 9.95113 1 -7.31335 0.0653423 4
266 1 16.9371 13.3714 0.891429 0 0 0 1 -7.0406 0 4
267 1 13.3868 15.1933 2.70081 1.81 -1.10977 -0.693867 1 -7.32952 0.00310538 4
268 1 13.3714 16.9371 0.891429 0 0 0 1 -7.02994 0 4
269 1 14.2629 14.2629 0 0 0 0 1 -3.31056 0 2
270 1 14.2694 16.0294 1.744 -6.58993 -0.471916 4.91282 1 -7.34941 0.0421916 4
271 1 16.0419 14.2478 1.76971 -3.87708 -0.199208 5.22317 1 -7.33963 0.0263616 4
272 1 16.0457 16.0457 0 0 0 0 1 -3.34073 0 2
273 1 15.1543 15.1543 0.891429 0 0 0 1 -7.02653 0 4
274 1 15.1946 16.924 2.61458 -2.62696 -3.35938 8.66182 1 -7.34093 0.0580185 4
275 1 16.9662 15.1482 2.65431 -7.7006 6.0673 5.8397 1 -7.29334 0.0810483 4
276 1 16.9371 16.9371 0.891429 0 0 0 1 -7.03885 0 4
277 1 14.2586 14.2708 3.56742 6.1469 2.4619 -2.70481 1 -7.38072 0.0318442 4
278 1 16.0507 16.0428 3.52905 0.0834693 -2.1657 -2.23652 1 -7.30137 0.00603705 4
279 1 18.7048 13.3264 2.67105 -5.20819 -6.20908 -0.944527 1 -7.35822 0.041435 4
280 1 20.5029 13.3714 0.891429 0 0 0 1 -7.02941 0 4
281 1 17.8286 14.2629 0 0 0 0 1 -3.31373 0 2
282 1 17.7939 16.059 1.77846 6.4824 6.64754 3.22445 1 -7.32935 0.0601316 4
283 1 19.5773 14.2026 1.77603 2.34297 -7.35185 1.2618 1 -7.31868 0.0380497 4
284 1 19.6114 16.0457 0 0 0 0 1 -3.33204 0 2
285 1 18.72 15.1543 0.891429 0 0 0 1 -6.97082 0 4
286 1 18.7116 16.9088 2.71999 3.68187 4.23446 1.37045 1 -7.30518 0.0207672 4
287 1 20.4777 15.1369 2.69098 7.59794 -5.05638 0.638587 1 -7.27753 0.0520993 4
288 1 20.5029 16.9371 0.891429 0 0 0 1 -7.03425 0 4
289 1 17.8501 14.2641 3.5768 -3.67285 -1.59606 1.55109 1 -7.40354 0.0114795 4
290 1 19.6204 15.9856 3.58533 -4.01129 3.24567 6.70285 1 -7.36408 0.0445365 4
293 1 0 17.8286 0 0 0 0 1 -3.34581 0 2
294 1 1.75191 17.8243 1.77787 -1.0328 5.16645 -4.70753 1 -7.32057 0.0310713 4
295 1 1.78286 19.6114 0 0 0 0 1 -3.33763 0 2
296 1 0.891429 18.72 0.891429 0 0 0 1 -7.00888 0 4
297 1 0.92772 20.4952 2.66029 1.20825 -4.45162 -3.34121 1 -7.32293 0.0201918 4
298 1 2.65173 18.7365 2.70259 6.06199 3.75381 7.686 1 -7.24664 0.0684129 4
299 1 2.67429 20.5029 0.891429 0 0 0 1 -7.03455 0 4
300 1 3.56572 17.8286 0 0 0 0 1 -3.32637 0 2
301 1 3.51312 19.6198 1.76958 0.232294 7.76294 9.44302 1 -7.33275 0.0930451 4
302 1 1.74311 19.6556 3.64451 1.30591 1.2198 3.9459 1 -7.31765 0.0116789 4
303 1 3.56418 17.8502 3.60809 -1.89247 6.22969 6.61838 1 -7.36308 0.0536491 4
305 1 0.0279355 19.6132 1.80251 -8.47049 1.32911 -8.30468 1 -7.32974 0.0886854 4
27 1 5.38673 21.4136 1.77419 -0.943139 -1.22753 -0.137717 1 -7.32475 0.00150335 4
307 1 5.36573 17.8141 1.82182 0.381337 -8.51792 -4.00133 1 -7.33723 0.055216 4
308 1 5.34857 19.6114 0 0 0 0 1 -3.33905 0 2
309 1 4.45714 18.72 0.891429 0 0 0 1 -6.95088 0 4
310 1 4.45178 20.4837 2.66478 3.64438 5.07924 -7.78118 1 -7.26258 0.0620104 4
311 1 6.23718 18.6882 2.66805 2.98225 -1.05247 0.794786 1 -7.38936 0.00661838 4
312 1 6.24 20.5029 0.891429 0 0 0 1 -7.01786 0 4
313 1 7.13143 17.8286 0 0 0 0 1 -3.32224 0 2
314 1 7.13736 19.5784 1.76216 -3.95246 -2.83211 -1.5804 1 -7.33327 0.0162705 4
315 1 8.02286 18.72 0.891429 0 0 0 1 -7.0418 0 4
316 1 8.04555 20.4784 2.69157 0.311157 -1.99043 5.32894 1 -7.35955 0.0202016 4
317 1 5.40702 19.5827 3.54634 4.4411 2.42209 -2.99196 1 -7.37963 0.0214997 4
318 1 7.11301 17.8157 3.55288 -3.18907 -8.83747 4.55447 1 -7.33167 0.0678533 4
320 1 8.89687 21.3673 1.79859 0.586795 2.97505 -0.417981 1 -7.331 0.00583211 4
321 1 12.4842 21.4098 1.77673 -0.299311 -2.79525 -2.37034 1 -7.28931 0.00841612 4
322 1 8.91303 17.8206 1.78173 -9.21787 -2.19103 -3.9482 1 -7.30771 0.0655776 4
323 1 8.91429 19.6114 0 0 0 0 1 -3.33046 0 2
324 1 9.84527 18.6939 2.67036 1.7969 -2.14599 -5.72957 1 -7.31181 0.0253092 4
325 1 9.80572 20.5029 0.891429 0 0 0 1 -7.02272 0 4
326 1 10.6971 17.8286 0 0 0 0 1 -3.32595 0 2
327 1 10.6672 19.622 1.75762 -1.35799 -0.101198 -3.15566 1 -7.36956 0.00735245 4
328 1 12.496 17.8215 1.77561 -2.54215 4.19784 -6.13694 1 -7.35797 0.0384325 4
329 1 12.48 19.6114 0 0 0 0 1 -3.33439 0 2
330 1 11.5886 18.72 0.891429 0 0 0 1 -7.01649 0 4
331 1 11.5461 20.4903 2.68943 -1.51371 2.18671 -2.13753 1 -7.25999 0.00724631 4
332 1 8.91008 19.5525 3.55814 -7.35925 0.639414 4.23059 1 -7.33221 0.0451043 4
333 1 10.7417 17.8187 3.59915 5.93293 5.04407 -0.551092 1 -7.32418 0.0379343 4
334 1 12.5184 19.6055 3.55775 -3.79148 -1.23349 -4.69063 1 -7.29535 0.0235892 4
335 1 16.0508 21.3831 1.76161 0.0290455 0.103287 2.72137 1 -7.35827 0.00461675 4
337 1 13.4089 18.727 2.69149 1.71326 9.35988 1.24018 1 -7.32313 0.0573134 4
338 1 13.3714 20.5029 0.891429 0 0 0 1 -7.03081 0 4
339 1 14.2629 17.8286 0 0 0 0 1 -3.33593 0 2
340 1 14.2768 19.6286 1.76578 -3.73433 -2.25892 -3.88411 1 -7.3764 0.021246 4
341 1 16.0888 17.8329 1.76297 -4.58991 -1.99561 0.829426 1 -7.35604 0.0160198 4
342 1 16.0457 19.6114 0 0 0 0 1 -3.31221 0 2
343 1 15.1543 18.72 0.891429 0 0 0 1 -7.02345 0 4
344 1 15.1461 20.5081 2.65876 -2.31249 -3.1903 0.876162 1 -7.36805 0.0101414 4
345 1 16.9919 18.7002 2.69433 -1.31496 2.70673 2.41605 1 -7.38944 0.00926968 4
346 1 16.9371 20.5029 0.891429 0 0 0 1 -7.04838 0 4
347 1 14.2775 17.7796 3.5492 3.60348 -3.61765 -6.27756 1 -7.30465 0.0407566 4
348 1 16.0631 19.5989 3.56356 5.42222 1.4142 -1.34978 1 -7.335 0.0206785 4
304 1 21.4113 17.842 3.59209 -5.50319 -4.48463 -1.6778 1 -7.39529 0.0331206 4
351 1 17.8286 17.8286 0 0 0 0 1 -3.323 0 2
352 1 17.8364 19.6042 1.80936 2.17256 -0.44542 4.71244 1 -7.31216 0.0168836 4
353 1 19.6105 17.7805 1.77954 -1.40185 5.43227 2.60775 1 -7.30786 0.0238234 4
354 1 19.6114 19.6114 0 0 0 0 1 -3.3521 0 2
355 1 18.72 18.72 0.891429 0 0 0 1 -6.98887 0 4
356 1 18.7669 20.4948 2.70813 -0.472343 1.51395 10.0637 1 -7.3116 0.0646037 4
357 1 20.5062 18.6891 2.72783 -0.238193 3.85443 2.57962 1 -7.27966 0.0134244 4
358 1 20.5029 20.5029 0.891429 0 0 0 1 -7.00545 0 4
359 1 17.8594 17.8138 3.57913 2.97472 -6.00944 0.890587 1 -7.38281 0.0284794 4
360 1 19.6027 19.5791 3.58467 -4.63803 -0.454431 -1.79854 1 -7.33229 0.0155312 4
361 1 0.930086 0.91015 4.44587 2.61631 0.735212 -7.81816 1 -7.28576 0.0426419 4
362 1 0.909631 2.70337 6.28931 3.16975 -8.01894 -2.64094 1 -7.32316 0.0506189 4
363 1 2.6974 0.916578 6.28603 -4.83662 4.56018 -4.53937 1 -7.30952 0.0403295 4
364 1 2.74235 2.71358 4.51398 -1.15465 15.1444 0.0926793 1 -7.30393 0.143591 4
365 1 3.6169 1.77635 5.39061 0.836972 -1.68747 -2.65894 1 -7.37403 0.00660894 4
366 1 1.76794 3.57495 5.37032 -3.34295 -5.42282 2.87067 1 -7.29189 0.0303887 4
367 1 1.80071 1.80664 7.15882 -6.32531 -1.36861 -1.93525 1 -7.3807 0.0284 4
368 1 0.927903 0.908577 8.07701 -8.0707 -3.20189 2.07242 1 -7.31001 0.0495969 4
369 1 2.70523 2.6568 8.06849 -0.454183 5.65621 -6.16433 1 -7.3469 0.043693 4
370 1 3.5663 3.51501 7.20609 -3.56375 -2.46354 -8.14661 1 -7.39463 0.0529913 4
411 1 0.0243624 1.80412 5.37223 -1.00065 1.82229 -5.83468 1 -7.25616 0.0238797 4
371 1 -0.0532302 3.56731 7.20431 3.73499 -0.717103 -1.40459 1 -7.26612 0.010231 4
651 1 3.5869 -0.0276636 7.19913 6.8654 0.602975 0.198551 1 -7.32821 0.0295881 4
710 1 -0.0138294 0.007003 7.15568 -4.34444 -2.48085 -6.48627 1 -7.34477 0.0417651 4
652 1 1.77845 0.0149906 5.38528 -8.8236 2.46567 -7.39023 1 -7.32279 0.0862378 4
372 1 4.45611 0.876835 4.49624 -3.3282 6.68783 -5.05424 1 -7.30178 0.050634 4
373 1 4.45361 2.67038 6.34025 -6.86684 0.294713 -1.56412 1 -7.33491 0.0309264 4
374 1 6.26246 0.866046 6.23207 4.48703 3.00224 3.54339 1 -7.3353 0.0259568 4
375 1 6.25316 2.64144 4.47046 0.556605 -5.85552 2.36464 1 -7.33258 0.0250143 4
376 1 7.17343 1.77841 5.39797 -10.8739 -4.15484 -1.00711 1 -7.36626 0.0849721 4
377 1 8.03967 0.869225 4.50169 1.25021 -0.841276 -5.34119 1 -7.32937 0.0191702 4
378 1 7.98349 2.68957 6.26909 -2.24023 -2.14578 6.17995 1 -7.36187 0.0297611 4
379 1 5.37579 3.53845 5.37956 1.97929 4.09498 6.33872 1 -7.33142 0.0378844 4
380 1 5.35503 1.74532 7.16506 -3.7538 -0.851256 3.34134 1 -7.31866 0.0161708 4
381 1 4.49903 0.869469 8.06418 -5.03515 -0.343662 -5.34909 1 -7.32196 0.0336631 4
382 1 6.28149 2.64774 8.06175 6.88195 3.49129 -1.47627 1 -7.28144 0.0384222 4
383 1 7.99426 0.888655 8.05875 1.37964 -5.1937 2.84867 1 -7.35205 0.0230254 4
384 1 7.13454 3.56021 7.17472 -0.207807 -3.04989 6.0841 1 -7.35785 0.0288565 4
665 1 7.08902 -0.0278291 7.15812 -1.87465 0.464337 -3.69109 1 -7.29941 0.0108016 4
386 1 9.8129 0.884022 6.25871 4.4948 3.37798 -0.307962 1 -7.29633 0.0197364 4
387 1 9.80922 2.659 4.46009 0.271596 4.38484 6.71604 1 -7.37124 0.0400878 4
388 1 10.7297 1.78263 5.32239 -2.26 0.0922307 0.570152 1 -7.34063 0.00338673 4
389 1 11.6059 0.891617 4.43946 -3.10943 1.49953 0.452953 1 -7.37263 0.00754525 4
390 1 11.6188 2.65985 6.24939 -0.558295 -4.1725 2.08984 1 -7.34551 0.0137487 4
391 1 8.88465 3.53701 5.33245 2.59405 4.88532 -6.22384 1 -7.33302 0.0431538 4
392 1 12.5084 3.54184 5.37952 2.2476 -0.300733 -1.80792 1 -7.36917 0.00523507 4
393 1 8.86599 1.77494 7.14518 -1.73232 -11.4555 -7.99723 1 -7.33389 0.123356 4
394 1 9.80631 2.64578 8.01914 -3.60215 -2.39796 -2.07979 1 -7.28305 0.0143477 4
395 1 12.4968 1.76923 7.16923 3.9748 2.07505 2.72245 1 -7.32746 0.017127 4
396 1 11.6229 0.925886 8.07161 8.3446 0.163449 0.406139 1 -7.35496 0.0434602 4
397 1 10.6887 3.55717 7.13878 -6.97083 -0.111069 -9.68698 1 -7.33113 0.0886599 4
398 1 13.3969 0.902442 6.23276 4.0317 -1.5787 6.64165 1 -7.32466 0.0391248 4
399 1 13.3752 2.66926 4.46397 -0.401522 13.5382 -2.59283 1 -7.2517 0.118365 4
400 1 14.3268 1.78363 5.38564 3.78535 -4.66587 1.52666 1 -7.34594 0.0239198 4
401 1 15.1518 0.880782 4.45491 -9.81572 -6.63196 -3.21877 1 -7.31861 0.0937945 4
402 1 15.2395 2.65526 6.26943 -1.0351 4.62516 -1.46507 1 -7.43194 0.0153179 4
403 1 17.0242 0.843419 6.26843 2.80472 -1.98596 1.21825 1 -7.31346 0.00827492 4
404 1 16.9554 2.66656 4.46141 0.510366 -3.46416 3.40295 1 -7.29084 0.0148392 4
405 1 16.0977 3.55611 5.37387 1.55631 0.890953 -2.17486 1 -7.31789 0.00494575 4
406 1 13.3842 2.69775 8.05939 -0.951783 -4.51157 0.998886 1 -7.30953 0.0138539 4
407 1 16.0974 1.78318 7.18767 5.46004 -3.06021 1.39133 1 -7.29002 0.0255897 4
408 1 15.1734 0.859331 8.08601 -2.59363 0.770146 -2.85852 1 -7.34024 0.00964213 4
409 1 16.9488 2.66722 8.05151 2.47249 1.01643 -0.424604 1 -7.38391 0.00456029 4
410 1 14.3347 3.54133 7.17294 11.9164 -2.83045 -11.186 1 -7.35688 0.171253 4
412 1 17.8752 1.74217 5.39676 6.43749 -2.81403 3.25368 1 -7.32398 0.0373123 4
413 1 18.7443 0.920995 4.47857 -10.6561 0.730454 -5.50514 1 -7.36649 0.0898739 4
414 1 18.7335 2.67101 6.24738 -3.52879 8.08655 -4.87966 1 -7.38914 0.0632732 4
415 1 20.4942 0.880468 6.2822 -3.43878 1.27516 -4.18518 1 -7.29985 0.0192747 4
416 1 20.498 2.6931 4.47317 -2.99688 -0.0690129 6.56336 1 -7.31357 0.0324058 4
417 1 19.6392 3.55559 5.39339 -5.42042 -2.49693 -10.3725 1 -7.38388 0.0891347 4
418 1 19.5963 1.81082 7.16621 2.42754 -2.4075 -0.877219 1 -7.33737 0.00775451 4
419 1 18.7894 0.910944 8.07617 3.52876 -1.70782 -0.182909 1 -7.26742 0.00958676 4
420 1 20.4951 2.65051 8.06161 -0.407653 -3.4143 10.4615 1 -7.32256 0.0754789 4
421 1 17.8432 3.55089 7.15745 -5.00449 -4.62086 -1.49099 1 -7.33559 0.0302625 4
423 1 0.874787 4.48897 4.4855 -2.66023 2.43119 -5.93703 1 -7.3915 0.0300233 4
424 1 0.911752 6.24932 6.29189 0.720994 0.435345 -3.42201 1 -7.37882 0.00773022 4
425 1 2.65896 4.45198 6.33066 -0.999221 2.77126 -10.9213 1 -7.24445 0.0796415 4
426 1 2.66105 6.27925 4.47459 -3.54856 -5.86329 4.39445 1 -7.30798 0.0412554 4
427 1 3.57932 5.33026 5.38994 0.807946 -1.71163 4.1677 1 -7.19979 0.0130412 4
428 1 1.80194 7.12443 5.37856 -2.23918 -3.3233 -7.38584 1 -7.36539 0.0439488 4
429 1 0.879745 8.02082 4.53268 2.08982 -0.958995 -5.8488 1 -7.29954 0.0245831 4
430 1 2.68048 8.04019 6.29508 9.68293 -4.54318 -5.70576 1 -7.36883 0.0914688 4
431 1 1.75964 5.36974 7.18183 6.59882 4.4844 4.04783 1 -7.40124 0.0498185 4
432 1 0.915557 4.48942 8.05901 1.47227 -5.72614 2.05778 1 -7.30554 0.0243933 4
433 1 2.6722 6.27959 8.06655 -1.72273 -0.151542 5.23749 1 -7.31007 0.0189355 4
434 1 0.863013 8.0506 8.09963 -4.06557 -6.06892 -0.102087 1 -7.32176 0.0332195 4