ITEM: TIMESTEP
49125300
ITEM: NUMBER OF ATOMS
3060
ITEM: BOX BOUNDS pp pp mm
0.0000000000000000e+00 2.1394294200000001e+01
0.0000000000000000e+00 2.1394294200000001e+01
-5.3491084073550004e-03 5.3485735499999997e+01
ITEM: ATOMS id type x y z vx vy vz c_clusts c_atom_pe c_atom_ke c_atom_coord
1 1 0 0 0 0 0 0 1 -3.33736 0 2
2 1 1.78286 1.78286 0 0 0 0 1 -3.34482 0 2
3 1 0.891429 0.891429 0.891429 0 0 0 1 -7.02043 0 4
4 1 0.916156 2.64071 2.69817 4.26589 2.38961 -0.409429 1 -7.33085 0.0149853 4
5 1 2.70016 0.904031 2.75201 7.56836 6.17177 0.945387 1 -7.20618 0.0599176 4
6 1 2.67429 2.67429 0.891429 0 0 0 1 -6.99667 0 4
7 1 3.56572 0 0 0 0 0 1 -3.33863 0 2
8 1 3.60065 1.81703 1.78253 3.07784 4.59106 7.35243 1 -7.30841 0.052663 4
9 1 0 3.56572 0 0 0 0 1 -3.35354 0 2
10 1 1.79014 3.60616 1.76669 4.25176 3.74269 -2.22992 1 -7.26598 0.0230657 4
11 1 3.56572 3.56572 0 0 0 0 1 -3.32475 0 2
12 1 1.76286 1.76615 3.61741 -1.90204 3.04297 -8.4893 1 -7.37972 0.0528723 4
13 1 3.52823 3.5419 3.5722 3.65159 -8.46855 -0.891862 1 -7.30821 0.0534327 4
292 1 1.79587 0.00968006 1.77892 5.33631 -0.933388 -3.27153 1 -7.28228 0.0249284 4
56 1 0.0600499 3.56288 3.5994 -7.39057 1.57325 -1.4409 1 -7.25885 0.0368301 4
14 1 5.34857 1.78286 0 0 0 0 1 -3.33034 0 2
15 1 4.45714 0.891429 0.891429 0 0 0 1 -6.99456 0 4
16 1 4.47434 2.73056 2.63735 5.47538 9.48365 -0.992917 1 -7.32532 0.0752546 4
17 1 6.24141 0.908864 2.64071 9.32533 -1.50041 -8.71329 1 -7.26142 0.102784 4
18 1 6.24 2.67429 0.891429 0 0 0 1 -7.02442 0 4
19 1 7.13143 0 0 0 0 0 1 -3.3522 0 2
20 1 7.15501 1.7666 1.74996 -4.38882 -1.50078 2.95033 1 -7.35938 0.0188088 4
21 1 8.02286 0.891429 0.891429 0 0 0 1 -7.03396 0 4
22 1 8.0743 2.69458 2.65069 0.335745 -7.32392 -1.72323 1 -7.30275 0.0353053 4
23 1 5.36311 3.57912 1.7601 2.4465 3.72481 -5.07899 1 -7.39443 0.0284173 4
24 1 7.13143 3.56572 0 0 0 0 1 -3.30732 0 2
25 1 5.35911 1.82931 3.55922 -3.8616 -4.68007 8.7835 1 -7.38181 0.0709347 4
26 1 7.14936 3.5569 3.59751 -7.68863 -4.17339 -5.00162 1 -7.24704 0.0632064 4
28 1 8.91429 1.78286 0 0 0 0 1 -3.31409 0 2
29 1 9.83382 0.91166 2.65166 -4.91039 -0.105579 4.77439 1 -7.36219 0.0292029 4
30 1 9.80572 2.67429 0.891429 0 0 0 1 -7.04514 0 4
31 1 10.6971 0 0 0 0 0 1 -3.32127 0 2
32 1 10.7123 1.8106 1.76429 4.52333 -1.83109 -2.31033 1 -7.34285 0.0181444 4
33 1 12.48 1.78286 0 0 0 0 1 -3.32342 0 2
34 1 11.5886 0.891429 0.891429 0 0 0 1 -6.97969 0 4
35 1 11.6377 2.66124 2.70263 -4.81871 -4.21733 -0.140232 1 -7.29962 0.0255353 4
36 1 8.90509 3.56883 1.77317 -8.97606 1.21135 -1.95522 1 -7.39395 0.0534415 4
37 1 10.6971 3.56572 0 0 0 0 1 -3.3126 0 2
38 1 12.4895 3.56039 1.77609 -1.39587 -4.64007 -8.11635 1 -7.31873 0.0556162 4
39 1 8.93318 1.78006 3.56254 0.67014 -6.03179 -4.54336 1 -7.38782 0.0357731 4
40 1 12.5317 1.73243 3.60758 -1.10316 -1.60869 3.38935 1 -7.31 0.00951848 4
41 1 10.7384 3.5726 3.55398 -3.40996 0.0944016 -1.36489 1 -7.30523 0.00840257 4
321 1 12.5208 -0.0153446 1.77676 -3.56928 -5.36108 3.07451 1 -7.35532 0.0317024 4
320 1 8.95302 0.0430529 1.7468 4.40426 -5.21098 -4.84912 1 -7.37142 0.0436108 4
319 1 10.6958 0.0167032 3.55389 2.54553 4.34947 0.24791 1 -7.3108 0.0158464 4
42 1 13.382 0.919299 2.71319 -4.14426 2.37494 -2.55081 1 -7.36885 0.0182507 4
43 1 13.3714 2.67429 0.891429 0 0 0 1 -6.99566 0 4
44 1 14.2629 0 0 0 0 0 1 -3.32997 0 2
45 1 14.2925 1.79515 1.79913 3.68066 9.4804 3.16346 1 -7.35387 0.0706035 4
46 1 16.0457 1.78286 0 0 0 0 1 -3.32304 0 2
47 1 15.1543 0.891429 0.891429 0 0 0 1 -7.04569 0 4
48 1 15.1582 2.68023 2.67188 -2.11059 5.78885 -6.59629 1 -7.3149 0.050713 4
49 1 16.9962 0.877237 2.67524 -2.41803 5.97401 -3.25007 1 -7.29214 0.0324275 4
50 1 16.9371 2.67429 0.891429 0 0 0 1 -7.02934 0 4
51 1 14.2629 3.56572 0 0 0 0 1 -3.32178 0 2
52 1 16.0342 3.56459 1.76982 -6.86268 5.46776 -1.92617 1 -7.37196 0.0502317 4
53 1 16.1243 1.78683 3.58104 4.86252 4.71798 0.722926 1 -7.26922 0.0288968 4
54 1 14.2586 3.53561 3.59781 -8.4209 -4.84074 1.15407 1 -7.38053 0.0595514 4
336 1 14.3044 0.0435584 3.58216 -0.0555901 4.44401 3.79016 1 -7.29083 0.0212357 4
350 1 21.3826 0.0168597 3.67443 2.08909 0.899992 -2.3683 1 -7.35417 0.00671169 4
55 1 21.4032 1.78569 1.79027 4.88801 3.65741 -3.55035 1 -7.35702 0.031043 4
57 1 17.8286 0 0 0 0 0 1 -3.33824 0 2
58 1 17.8446 1.77456 1.78482 -0.893278 -2.40933 0.101892 1 -7.38002 0.00411624 4
59 1 19.6114 1.78286 0 0 0 0 1 -3.32597 0 2
60 1 18.72 0.891429 0.891429 0 0 0 1 -7.029 0 4
61 1 18.725 2.65061 2.66778 -11.8832 -0.644788 -1.6234 1 -7.34929 0.0897926 4
62 1 20.5277 0.881599 2.7253 -1.83151 -1.77514 -1.32231 1 -7.30461 0.00513753 4
63 1 20.5029 2.67429 0.891429 0 0 0 1 -7.0199 0 4
64 1 17.8286 3.56572 0 0 0 0 1 -3.33075 0 2
65 1 19.5919 3.57282 1.78779 -6.74313 2.41637 -3.57078 1 -7.3706 0.0398721 4
66 1 19.6233 1.77507 3.58493 3.88408 5.68644 -5.94469 1 -7.34316 0.0515126 4
67 1 17.7908 3.57805 3.56266 -6.28804 2.856 -5.37514 1 -7.32464 0.0476706 4
68 1 19.6238 0.0193087 1.76133 -2.20862 2.27498 -2.1201 1 -7.33888 0.00905528 4
69 1 1.78286 5.34857 0 0 0 0 1 -3.3273 0 2
70 1 0.891429 4.45714 0.891429 0 0 0 1 -6.9981 0 4
71 1 0.927254 6.31849 2.75367 1.94108 1.09229 -4.47147 1 -7.30631 0.0155326 4
72 1 2.68982 4.54425 2.68031 -2.83711 4.19821 -3.43277 1 -7.25183 0.0233149 4
73 1 2.67429 6.24 0.891429 0 0 0 1 -7.01231 0 4
74 1 3.62162 5.38402 1.7618 -2.32384 -2.87278 0.0351544 1 -7.34424 0.00849881 4
75 1 0 7.13143 0 0 0 0 1 -3.33903 0 2
76 1 1.77766 7.12761 1.79332 -1.39236 -3.24803 4.53636 1 -7.33688 0.0205817 4
77 1 0.891429 8.02286 0.891429 0 0 0 1 -7.0336 0 4
78 1 2.69344 8.04167 2.68103 -4.70688 -8.2436 3.82878 1 -7.31132 0.0652123 4
79 1 3.56572 7.13143 0 0 0 0 1 -3.31119 0 2
80 1 1.79589 5.42358 3.57873 -4.77069 2.61636 -4.3274 1 -7.37974 0.0300827 4
81 1 3.56335 7.15474 3.61102 -1.9129 -0.312274 -5.13464 1 -7.29873 0.0187483 4
128 1 0.00980984 5.39853 1.81369 0.113057 -1.72608 -5.14537 1 -7.24002 0.018341 4
83 1 5.34857 5.34857 0 0 0 0 1 -3.30041 0 2
84 1 4.45714 4.45714 0.891429 0 0 0 1 -7.05011 0 4
85 1 4.46276 6.24444 2.68308 -2.2697 7.49705 5.16797 1 -7.3092 0.0548141 4
86 1 6.20809 4.42871 2.69412 1.27396 -0.75698 5.74112 1 -7.31919 0.0218823 4
87 1 6.24 6.24 0.891429 0 0 0 1 -7.03476 0 4
88 1 7.10907 5.323 1.77422 -2.75689 -3.23613 2.70429 1 -7.3165 0.015801 4
89 1 8.02286 4.45714 0.891429 0 0 0 1 -7.03063 0 4
90 1 8.01002 6.19185 2.71609 1.65868 6.59014 -16.3227 1 -7.33444 0.194578 4
91 1 5.36468 7.13545 1.77641 -4.99328 -2.2943 -0.750284 1 -7.35571 0.0191456 4
92 1 4.45714 8.02286 0.891429 0 0 0 1 -7.01132 0 4
93 1 6.26514 8.04993 2.63818 15.2772 1.59481 -1.10193 1 -7.33838 0.147609 4
94 1 7.13143 7.13143 0 0 0 0 1 -3.33023 0 2
95 1 8.02286 8.02286 0.891429 0 0 0 1 -7.01991 0 4
96 1 5.33462 5.33782 3.55545 3.84472 -4.15618 7.98733 1 -7.34356 0.0596615 4
97 1 7.1458 7.09588 3.57742 -3.72219 2.15285 4.54923 1 -7.30486 0.0243897 4
98 1 8.91429 5.34857 0 0 0 0 1 -3.3207 0 2
99 1 9.77288 4.47595 2.67218 5.02588 1.82722 -0.593902 1 -7.35927 0.0180198 4
100 1 9.80572 6.24 0.891429 0 0 0 1 -6.9813 0 4
101 1 10.6659 5.35187 1.75736 3.93887 5.15355 0.483931 1 -7.33619 0.0263336 4
102 1 12.48 5.34857 0 0 0 0 1 -3.32282 0 2
103 1 11.5886 4.45714 0.891429 0 0 0 1 -7.03316 0 4
104 1 11.5987 6.22639 2.64689 -1.65869 -1.78184 2.87062 1 -7.36932 0.0088177 4
105 1 8.85489 7.10459 1.8026 -5.97619 2.93444 -1.87687 1 -7.30332 0.0297821 4
106 1 9.80792 7.98858 2.67549 -4.34664 -1.48994 -2.81575 1 -7.31506 0.0180763 4
107 1 10.6971 7.13143 0 0 0 0 1 -3.33753 0 2
108 1 12.4767 7.11829 1.74979 -1.57763 9.06056 -6.91777 1 -7.38843 0.082433 4
109 1 11.5886 8.02286 0.891429 0 0 0 1 -7.01222 0 4
110 1 8.9417 5.34156 3.6057 0.670112 -0.0870328 -1.78427 1 -7.39035 0.00226578 4
111 1 12.4874 5.3566 3.55397 7.28491 -5.11394 -3.5834 1 -7.29521 0.0573025 4
112 1 10.6983 7.0944 3.56499 -1.1957 -5.66988 -1.36296 1 -7.34365 0.0220556 4
113 1 13.4077 4.43009 2.69617 -4.5855 11.7809 1.01828 1 -7.26437 0.10012 4
114 1 13.3714 6.24 0.891429 0 0 0 1 -7.06043 0 4
115 1 14.2705 5.35284 1.74637 9.24695 -6.94807 1.36906 1 -7.31976 0.0844359 4
116 1 16.0457 5.34857 0 0 0 0 1 -3.33552 0 2
117 1 15.1543 4.45714 0.891429 0 0 0 1 -7.0229 0 4
118 1 15.1974 6.20739 2.69455 -3.42603 -7.71491 5.24823 1 -7.29593 0.0614965 4
119 1 16.9274 4.44635 2.68919 -0.0521815 -3.11639 2.99337 1 -7.3382 0.0116237 4
120 1 16.9371 6.24 0.891429 0 0 0 1 -7.02192 0 4
121 1 13.3729 8.03054 2.62643 -0.488936 -4.90394 -7.72297 1 -7.2598 0.0522414 4
122 1 14.2629 7.13143 0 0 0 0 1 -3.33383 0 2
123 1 16.0771 7.14851 1.75193 2.7212 -4.50528 -4.58589 1 -7.35429 0.0303326 4
124 1 15.1543 8.02286 0.891429 0 0 0 1 -7.02849 0 4
125 1 16.9239 8.00037 2.61864 2.20445 -3.85747 -1.95846 1 -7.2579 0.0146738 4
126 1 16.0294 5.33523 3.59476 9.68744 3.95711 -7.64543 1 -7.3776 0.104541 4
127 1 14.3091 7.09015 3.57708 2.72993 -4.63815 -3.82363 1 -7.24013 0.0271285 4
82 1 21.3694 7.16416 3.60887 3.63873 0.252952 1.27222 1 -7.35561 0.00928839 4
129 1 17.8188 5.35343 1.78755 0.248991 5.48776 -1.40239 1 -7.36745 0.0200074 4
130 1 19.6114 5.34857 0 0 0 0 1 -3.33986 0 2
131 1 18.72 4.45714 0.891429 0 0 0 1 -7.02102 0 4
132 1 18.7193 6.23286 2.68707 -1.52714 0.439519 4.33117 1 -7.31687 0.0132479 4
133 1 20.4959 4.47329 2.70099 1.24881 3.85399 4.31995 1 -7.27377 0.0218314 4
134 1 20.5029 6.24 0.891429 0 0 0 1 -6.98749 0 4
135 1 17.8286 7.13143 0 0 0 0 1 -3.31206 0 2
136 1 19.5607 7.11711 1.7808 -1.79438 -4.98645 5.44984 1 -7.34873 0.0359671 4
137 1 18.72 8.02286 0.891429 0 0 0 1 -7.03433 0 4
138 1 20.4962 8.00745 2.67972 5.58212 -2.38317 5.98756 1 -7.3247 0.0452444 4
139 1 19.6264 5.37308 3.61242 2.5333 4.46419 -5.02853 1 -7.39663 0.0321376 4
140 1 17.8308 7.13741 3.57945 -3.42467 2.33178 -3.63155 1 -7.34374 0.0188929 4
141 1 1.78286 8.91429 0 0 0 0 1 -3.33836 0 2
142 1 0.90374 9.76351 2.70645 -3.10307 1.4946 3.33045 1 -7.31723 0.0142876 4
143 1 2.67429 9.80572 0.891429 0 0 0 1 -7.05099 0 4
144 1 3.54667 8.92217 1.76241 3.34891 -4.36435 3.02049 1 -7.37063 0.024515 4
145 1 0 10.6971 0 0 0 0 1 -3.33342 0 2
146 1 1.79049 10.6954 1.77681 5.10617 -0.135591 -9.64985 1 -7.30871 0.0742001 4
147 1 1.78286 12.48 0 0 0 0 1 -3.31815 0 2
148 1 0.891429 11.5886 0.891429 0 0 0 1 -7.03259 0 4
149 1 2.67462 11.5885 2.70282 15.4718 0.834071 0.599848 1 -7.37883 0.149651 4
150 1 3.56572 10.6971 0 0 0 0 1 -3.32636 0 2
151 1 3.53588 12.4987 1.7931 -3.56738 1.31396 -0.389972 1 -7.27219 0.00909037 4
152 1 1.83164 8.9156 3.59202 -10.1198 -4.66974 -3.56937 1 -7.36497 0.0852464 4
153 1 1.74808 12.4792 3.55645 1.34411 0.300542 -10.2158 1 -7.2871 0.0661385 4
154 1 3.57377 10.6895 3.58179 3.41439 0.294039 8.29479 1 -7.37094 0.0501352 4
205 1 0.021523 8.88733 1.77539 7.79864 -5.71945 -1.6322 1 -7.34302 0.0598743 4
204 1 0.0274687 12.5029 1.75508 12.8013 -1.76385 -1.01066 1 -7.34796 0.104571 4
155 1 5.34857 8.91429 0 0 0 0 1 -3.33364 0 2
156 1 4.44347 9.78107 2.70957 -1.0606 -3.42477 1.17171 1 -7.32063 0.00885514 4
157 1 6.24 9.80572 0.891429 0 0 0 1 -7.02286 0 4
158 1 7.14247 8.92686 1.78528 3.10277 2.9208 7.95629 1 -7.36418 0.0507034 4
159 1 8.05276 9.81505 2.69675 8.7701 3.79172 -4.07174 1 -7.25294 0.0671417 4
160 1 5.36409 10.6583 1.80701 0.835171 -1.87031 -4.64444 1 -7.30229 0.0160377 4
161 1 5.34857 12.48 0 0 0 0 1 -3.3551 0 2
162 1 4.45714 11.5886 0.891429 0 0 0 1 -6.94966 0 4
163 1 6.25634 11.6 2.6681 4.40181 -0.701207 -8.10044 1 -7.30035 0.0532079 4
164 1 7.13143 10.6971 0 0 0 0 1 -3.35046 0 2
165 1 7.14393 12.4891 1.79743 6.37279 4.35076 -1.90021 1 -7.38038 0.0393077 4
166 1 8.02286 11.5886 0.891429 0 0 0 1 -7.05029 0 4
167 1 5.39638 8.87645 3.56582 4.30415 6.29258 0.700187 1 -7.36494 0.0364819 4
168 1 5.29834 12.4765 3.59596 3.46776 -4.6737 -4.71248 1 -7.27259 0.0349034 4
169 1 7.15279 10.7299 3.62975 -5.6024 0.0448193 4.54688 1 -7.28579 0.0324054 4
170 1 8.91429 8.91429 0 0 0 0 1 -3.33473 0 2
171 1 9.80572 9.80572 0.891429 0 0 0 1 -6.97194 0 4
172 1 10.6736 8.89063 1.79158 4.21093 -7.84642 4.25905 1 -7.38911 0.0606478 4
173 1 12.48 8.91429 0 0 0 0 1 -3.33698 0 2
174 1 11.5607 9.7962 2.69468 -3.73915 -2.67026 -5.15583 1 -7.38676 0.0296861 4
175 1 8.86916 10.7388 1.78173 -4.07851 -1.94089 0.444696 1 -7.25657 0.0128214 4
176 1 8.91429 12.48 0 0 0 0 1 -3.34131 0 2
177 1 9.79965 11.6018 2.73057 -5.68066 1.69154 5.3053 1 -7.23459 0.0393855 4
178 1 10.6971 10.6971 0 0 0 0 1 -3.33164 0 2
179 1 10.696 12.5045 1.77489 -2.41613 4.60455 -5.65042 1 -7.32405 0.0367025 4
180 1 12.4544 10.6796 1.77317 -3.21829 3.58551 1.11873 1 -7.37448 0.0152276 4
181 1 12.48 12.48 0 0 0 0 1 -3.32119 0 2
182 1 11.5886 11.5886 0.891429 0 0 0 1 -7.03611 0 4
183 1 8.94155 8.88922 3.62747 -1.33493 3.64726 -2.15764 1 -7.29832 0.0122867 4
184 1 12.466 8.92837 3.56541 -7.11408 -1.28107 -10.231 1 -7.33163 0.0976736 4
185 1 8.87972 12.5012 3.58946 -5.3633 -1.64509 6.70431 1 -7.31038 0.0475652 4
186 1 10.6941 10.6345 3.58293 -2.2078 2.04533 3.52416 1 -7.39886 0.0133681 4
187 1 12.4661 12.4595 3.56034 7.3081 -7.87006 2.65351 1 -7.34275 0.0761771 4
188 1 13.3714 9.80572 0.891429 0 0 0 1 -7.00812 0 4
189 1 14.2714 8.94115 1.76264 -3.1315 -8.90458 3.14351 1 -7.38211 0.0616074 4
190 1 16.0457 8.91429 0 0 0 0 1 -3.32308 0 2
191 1 15.1645 9.85881 2.64628 3.28655 1.19639 1.60648 1 -7.29598 0.0092203 4
192 1 16.9371 9.80572 0.891429 0 0 0 1 -7.0086 0 4
193 1 13.3504 11.5356 2.66163 3.93145 -3.84697 -1.36376 1 -7.27677 0.0199894 4
194 1 14.2629 10.6971 0 0 0 0 1 -3.3318 0 2
195 1 14.2263 12.4615 1.74737 1.58463 3.7336 7.84874 1 -7.31708 0.0485826 4
196 1 16.0869 10.7554 1.77152 -5.5796 0.720846 -2.89725 1 -7.36764 0.0249254 4
197 1 16.0457 12.48 0 0 0 0 1 -3.32603 0 2
198 1 15.1543 11.5886 0.891429 0 0 0 1 -6.9954 0 4
199 1 16.9565 11.6134 2.66338 -0.768357 0.475469 2.79947 1 -7.36136 0.00538614 4
200 1 16.0637 8.93052 3.57398 0.65187 4.50155 7.82147 1 -7.26594 0.0509545 4
201 1 14.2989 10.6594 3.58008 1.39958 3.35808 8.01125 1 -7.29236 0.0481855 4
202 1 16.043 12.4808 3.52557 -6.53887 7.80454 -1.93389 1 -7.31864 0.0668532 4
203 1 21.372 10.6738 3.54863 0.067696 -1.86316 -3.42543 1 -7.30864 0.00946677 4
206 1 17.8381 8.92997 1.7318 -4.10586 0.150072 4.53276 1 -7.32342 0.0232952 4
207 1 19.6114 8.91429 0 0 0 0 1 -3.31943 0 2
208 1 18.7079 9.8114 2.6468 10.3306 6.52249 -6.17261 1 -7.32486 0.116621 4
209 1 20.5029 9.80572 0.891429 0 0 0 1 -7.01149 0 4
210 1 17.8286 10.6971 0 0 0 0 1 -3.30347 0 2
211 1 17.8772 12.5298 1.73779 -0.87157 -3.67926 2.37266 1 -7.32137 0.0124025 4
212 1 19.5958 10.6935 1.72931 -3.86346 2.45127 5.07644 1 -7.36254 0.0290706 4
213 1 19.6114 12.48 0 0 0 0 1 -3.32499 0 2
214 1 18.72 11.5886 0.891429 0 0 0 1 -7.01948 0 4
215 1 20.4858 11.5755 2.61508 3.01385 -1.40992 -4.59227 1 -7.29605 0.0200173 4
216 1 19.6445 8.92617 3.51905 3.96853 5.65119 -0.051476 1 -7.34189 0.0296822 4
217 1 17.792 10.7466 3.53211 -3.23507 0.939074 1.26602 1 -7.35542 0.00806063 4
218 1 19.6394 12.4941 3.5501 5.1959 -0.148471 -5.06788 1 -7.30171 0.0328037 4
219 1 0.873884 13.3779 2.65223 1.19317 -2.12931 0.67961 1 -7.38125 0.00399566 4
220 1 2.67429 13.3714 0.891429 0 0 0 1 -7.03949 0 4
221 1 0 14.2629 0 0 0 0 1 -3.29312 0 2
222 1 1.78312 14.256 1.76239 4.47322 -4.05146 -1.2974 1 -7.35286 0.0237189 4
223 1 1.78286 16.0457 0 0 0 0 1 -3.32134 0 2
224 1 0.891429 15.1543 0.891429 0 0 0 1 -7.04682 0 4
225 1 0.867645 16.927 2.67887 1.91227 5.94997 -1.55208 1 -7.34398 0.0258107 4
226 1 2.66653 15.1406 2.68569 -0.830898 2.53096 -4.94643 1 -7.3708 0.0196458 4
227 1 2.67429 16.9371 0.891429 0 0 0 1 -7.01109 0 4
228 1 3.56572 14.2629 0 0 0 0 1 -3.34363 0 2
229 1 3.57508 16.0403 1.76194 5.66016 3.66237 7.62655 1 -7.36432 0.0644924 4
230 1 1.7904 16.0561 3.5501 -2.45879 8.91706 0.859155 1 -7.40286 0.053714 4
231 1 3.53102 14.3008 3.57351 -2.15035 7.71182 -4.92807 1 -7.35169 0.0550113 4
233 1 0.00165081 16.0259 1.74474 5.61077 3.34795 0.886365 1 -7.3296 0.0270601 4
232 1 0.0116076 14.2975 3.53489 0.437623 1.923 0.761913 1 -7.3904 0.00278221 4
234 1 4.47193 13.4368 2.70696 3.41754 -0.780272 -2.60214 1 -7.25398 0.0118632 4
235 1 6.24 13.3714 0.891429 0 0 0 1 -7.04927 0 4
236 1 8.01184 13.3847 2.70188 8.60562 -2.89152 -4.0314 1 -7.38621 0.0614147 4
237 1 5.40461 14.2637 1.76888 -2.06189 -4.6224 2.12165 1 -7.35362 0.0187471 4
238 1 5.34857 16.0457 0 0 0 0 1 -3.3186 0 2
239 1 4.45714 15.1543 0.891429 0 0 0 1 -6.99097 0 4
240 1 4.4687 16.9206 2.64537 -1.45736 -3.90447 4.97761 1 -7.315 0.0262324 4
241 1 6.24581 15.176 2.6967 -2.70429 1.42765 -10.0269 1 -7.29364 0.0683987 4
242 1 6.24 16.9371 0.891429 0 0 0 1 -7.01235 0 4
243 1 7.13143 14.2629 0 0 0 0 1 -3.33712 0 2
244 1 7.16505 16.0617 1.78069 -3.33229 1.47376 -4.0419 1 -7.30569 0.018432 4
245 1 8.02286 15.1543 0.891429 0 0 0 1 -7.04401 0 4
246 1 8.04668 16.9612 2.65331 -2.78783 2.01287 -3.59885 1 -7.38536 0.0154208 4
247 1 5.37614 16.0942 3.56171 -8.98563 -4.61615 3.20999 1 -7.38539 0.0699323 4
248 1 7.15217 14.258 3.62204 5.58722 0.619103 -2.36277 1 -7.27705 0.0231437 4
249 1 9.80572 13.3714 0.891429 0 0 0 1 -7.02333 0 4
250 1 11.5729 13.3707 2.68784 -0.569405 6.06051 -6.5169 1 -7.3233 0.0494978 4
251 1 8.89245 14.2947 1.7815 5.69072 7.09464 3.5615 1 -7.3152 0.059381 4
252 1 8.91429 16.0457 0 0 0 0 1 -3.32849 0 2
253 1 9.77765 15.1576 2.70658 9.44027 4.6728 -5.54492 1 -7.31127 0.0881977 4
254 1 9.80572 16.9371 0.891429 0 0 0 1 -7.02484 0 4
255 1 10.6971 14.2629 0 0 0 0 1 -3.33251 0 2
256 1 10.6919 16.06 1.78142 -9.40072 -0.691429 -2.14305 1 -7.36976 0.0581622 4
257 1 12.4695 14.3012 1.77241 -0.125521 1.38086 5.47583 1 -7.34747 0.0198599 4
258 1 12.48 16.0457 0 0 0 0 1 -3.32208 0 2
259 1 11.5886 15.1543 0.891429 0 0 0 1 -7.05267 0 4
260 1 11.5319 16.9174 2.65994 -1.44809 -0.155002 -2.89202 1 -7.28628 0.00652599 4
261 1 8.8582 16.0312 3.54888 10.7482 2.23718 8.53548 1 -7.32317 0.120367 4
262 1 10.6491 14.2238 3.60764 9.60393 0.613209 1.69388 1 -7.35582 0.0594298 4
263 1 12.5214 16.0344 3.53741 5.9076 -5.42095 5.15514 1 -7.23986 0.0565548 4
264 1 13.3714 13.3714 0.891429 0 0 0 1 -6.99504 0 4
265 1 15.1451 13.3737 2.66967 5.12703 -3.12851 -4.25269 1 -7.33565 0.0337102 4
266 1 16.9371 13.3714 0.891429 0 0 0 1 -7.02117 0 4
267 1 13.3836 15.1055 2.63625 -8.92264 -1.22196 2.40064 1 -7.34186 0.05407 4
268 1 13.3714 16.9371 0.891429 0 0 0 1 -7.04639 0 4
269 1 14.2629 14.2629 0 0 0 0 1 -3.32259 0 2
270 1 14.2694 16.0294 1.744 -6.58993 -0.471916 4.91282 1 -7.29208 0.0421916 4
271 1 16.0316 14.2547 1.78225 6.74956 3.04501 -3.30152 1 -7.3642 0.0409113 4
272 1 16.0457 16.0457 0 0 0 0 1 -3.34379 0 2
273 1 15.1543 15.1543 0.891429 0 0 0 1 -7.01592 0 4
274 1 15.1483 16.9343 2.72437 -0.0112339 2.63704 -2.92296 1 -7.23722 0.00964625 4
275 1 16.8919 15.175 2.68671 3.41446 -7.15113 -3.02105 1 -7.37568 0.0447674 4
276 1 16.9371 16.9371 0.891429 0 0 0 1 -7.03804 0 4
277 1 14.2861 14.2331 3.51941 -0.183625 3.66954 4.80985 1 -7.36155 0.0228019 4
278 1 16.0343 16.0282 3.55859 6.32599 -6.07499 -0.458481 1 -7.35551 0.0480101 4
279 1 18.7523 13.4221 2.63979 1.22007 4.11821 4.91547 1 -7.32904 0.0265216 4
280 1 20.5029 13.3714 0.891429 0 0 0 1 -6.99628 0 4
281 1 17.8286 14.2629 0 0 0 0 1 -3.31774 0 2
282 1 17.7939 16.059 1.77846 6.4824 6.64754 3.22445 1 -7.34539 0.0601316 4
283 1 19.6552 14.3035 1.77419 -3.45673 6.37216 1.33859 1 -7.32988 0.0338259 4
284 1 19.6114 16.0457 0 0 0 0 1 -3.30116 0 2
285 1 18.72 15.1543 0.891429 0 0 0 1 -6.99352 0 4
286 1 18.6981 16.9799 2.64499 3.4932 -6.21222 -4.47567 1 -7.35827 0.0440838 4
287 1 20.5606 15.2041 2.64766 -1.31412 -6.57773 -5.15116 1 -7.28036 0.0445208 4
288 1 20.5029 16.9371 0.891429 0 0 0 1 -7.0525 0 4
289 1 17.8103 14.271 3.54574 1.11114 -3.11008 -2.57121 1 -7.33293 0.0109039 4
290 1 19.5759 16.0961 3.55309 -1.55655 5.96748 -0.950684 1 -7.29454 0.0242357 4
291 1 3.61075 21.389 3.64886 -1.38778 6.7685 1.4784 1 -7.30155 0.0310741 4
293 1 0 17.8286 0 0 0 0 1 -3.32553 0 2
294 1 1.75191 17.8243 1.77787 -1.0328 5.16645 -4.70753 1 -7.35955 0.0310713 4
295 1 1.78286 19.6114 0 0 0 0 1 -3.33669 0 2
296 1 0.891429 18.72 0.891429 0 0 0 1 -7.00541 0 4
297 1 0.884118 20.5248 2.71566 -1.0864 7.22297 4.53284 1 -7.22948 0.0459962 4
298 1 2.66511 18.7288 2.6508 -6.03107 -2.30962 -2.40909 1 -7.38649 0.0295726 4
299 1 2.67429 20.5029 0.891429 0 0 0 1 -7.03664 0 4
300 1 3.56572 17.8286 0 0 0 0 1 -3.31656 0 2
301 1 3.51312 19.6198 1.76958 0.232294 7.76294 9.44302 1 -7.37051 0.0930451 4
302 1 1.80168 19.612 3.55912 2.25935 -1.33965 -7.74658 1 -7.35051 0.0416458 4
303 1 3.52049 17.8431 3.56021 -3.72111 5.7653 1.80271 1 -7.35274 0.0313299 4
27 1 5.31257 21.3615 1.78455 -1.31729 -6.90211 4.63742 1 -7.34366 0.0441176 4
306 1 7.12656 21.3735 3.58591 2.1261 3.62219 3.51244 1 -7.26063 0.018659 4
307 1 5.33927 17.8252 1.76514 -7.11001 5.95273 -1.0757 1 -7.29753 0.0542409 4
308 1 5.34857 19.6114 0 0 0 0 1 -3.32965 0 2
309 1 4.45714 18.72 0.891429 0 0 0 1 -6.99808 0 4
310 1 4.41408 20.5373 2.67908 2.2185 -3.2538 1.29072 1 -7.33511 0.0106901 4
311 1 6.23467 18.7901 2.70466 6.28581 1.02969 -2.04845 1 -7.25299 0.0278647 4
312 1 6.24 20.5029 0.891429 0 0 0 1 -7.02141 0 4
313 1 7.13143 17.8286 0 0 0 0 1 -3.32306 0 2
314 1 7.12848 19.6387 1.7749 -1.11418 0.206606 3.13536 1 -7.34788 0.00691801 4
315 1 8.02286 18.72 0.891429 0 0 0 1 -7.01446 0 4
316 1 8.05659 20.5387 2.66941 2.91205 -8.01297 -8.79978 1 -7.26892 0.0934411 4
317 1 5.30543 19.6522 3.59389 -3.48522 0.308485 -0.52135 1 -7.31853 0.00778888 4
318 1 7.12187 17.8324 3.57981 0.549083 0.535633 1.59596 1 -7.3072 0.0019516 4
322 1 8.91303 17.8206 1.78173 -9.21787 -2.19103 -3.9482 1 -7.4072 0.0655776 4
323 1 8.91429 19.6114 0 0 0 0 1 -3.33364 0 2
324 1 9.80178 18.7293 2.65419 -2.33235 -6.6433 2.92521 1 -7.32591 0.0361817 4
325 1 9.80572 20.5029 0.891429 0 0 0 1 -7.03842 0 4
326 1 10.6971 17.8286 0 0 0 0 1 -3.32595 0 2
327 1 10.6672 19.622 1.75762 -1.35799 -0.101198 -3.15566 1 -7.33454 0.00735245 4
328 1 12.496 17.8215 1.77561 -2.54215 4.19784 -6.13694 1 -7.30912 0.0384325 4
329 1 12.48 19.6114 0 0 0 0 1 -3.33938 0 2
330 1 11.5886 18.72 0.891429 0 0 0 1 -6.96815 0 4
331 1 11.6205 20.5096 2.66613 11.7149 -2.66223 -1.21276 1 -7.31648 0.0907476 4
332 1 8.9049 19.6566 3.58294 5.1148 -0.355127 -2.57573 1 -7.31172 0.0204913 4
333 1 10.6996 17.8438 3.55718 7.30016 -0.0445439 1.09469 1 -7.31043 0.0339177 4
334 1 12.4897 19.5743 3.53756 -3.43679 -1.01523 3.49884 1 -7.31957 0.015613 4
335 1 16.0508 21.3831 1.76161 0.0290455 0.103287 2.72137 1 -7.30955 0.00461675 4
337 1 13.3771 18.7496 2.663 -2.74945 -6.48114 -3.70754 1 -7.37281 0.0394061 4
338 1 13.3714 20.5029 0.891429 0 0 0 1 -7.04882 0 4
339 1 14.2629 17.8286 0 0 0 0 1 -3.33593 0 2
340 1 14.2768 19.6286 1.76578 -3.73433 -2.25892 -3.88411 1 -7.36499 0.021246 4
341 1 16.0888 17.8329 1.76297 -4.58991 -1.99561 0.829426 1 -7.27365 0.0160198 4
342 1 16.0457 19.6114 0 0 0 0 1 -3.30996 0 2
343 1 15.1543 18.72 0.891429 0 0 0 1 -7.00634 0 4
344 1 15.1726 20.5034 2.70364 5.24853 -4.83196 -4.40822 1 -7.32604 0.0437735 4
345 1 16.9191 18.7552 2.67451 -5.78102 -2.48723 -3.14005 1 -7.3044 0.0307892 4
346 1 16.9371 20.5029 0.891429 0 0 0 1 -7.01407 0 4
347 1 14.2897 17.8571 3.55609 1.60645 3.15557 0.91409 1 -7.33817 0.00832424 4
348 1 16.0798 19.6188 3.59993 -7.73585 -5.40418 -1.23464 1 -7.39313 0.0563749 4
349 1 17.855 21.3422 3.61137 1.90875 3.0206 0.00383577 1 -7.34456 0.00794675 4
304 1 21.3423 17.8125 3.54659 0.185914 -4.14244 3.98908 1 -7.32616 0.0206067 4
305 1 21.35 19.631 1.75818 3.66652 -4.88623 5.64356 1 -7.33114 0.0430522 4
351 1 17.8286 17.8286 0 0 0 0 1 -3.31796 0 2
352 1 17.8272 19.6192 1.76889 3.96406 -1.20533 -5.88824 1 -7.37416 0.0322653 4
353 1 19.6105 17.7805 1.77954 -1.40185 5.43227 2.60775 1 -7.3334 0.0238234 4
354 1 19.6114 19.6114 0 0 0 0 1 -3.33522 0 2
355 1 18.72 18.72 0.891429 0 0 0 1 -6.98676 0 4
356 1 18.7131 20.5162 2.67183 -3.07902 3.46716 -11.0044 1 -7.31496 0.0887565 4
357 1 20.4978 18.7309 2.66609 6.63377 -3.0581 -2.25095 1 -7.33277 0.0363657 4
358 1 20.5029 20.5029 0.891429 0 0 0 1 -7.04658 0 4
359 1 17.8196 17.8345 3.57519 -3.10127 -4.50249 8.33379 1 -7.33111 0.0618333 4
360 1 19.6002 19.6264 3.56611 9.07785 0.00963471 5.5704 1 -7.35401 0.070606 4
361 1 0.893595 0.884133 4.5448 -1.03506 0.250858 3.84839 1 -7.36661 0.00992421 4
362 1 0.951745 2.6676 6.29266 -9.5488 4.92291 -0.629214 1 -7.38142 0.0720835 4
363 1 2.70372 0.912031 6.29037 1.48091 -2.11972 4.13147 1 -7.34452 0.0147859 4
364 1 2.64418 2.66814 4.47563 1.18405 -6.60218 -2.49269 1 -7.30004 0.0318709 4
365 1 3.59701 1.73715 5.36893 1.03922 -2.58401 11.9989 1 -7.27931 0.0944412 4
366 1 1.83654 3.52849 5.42399 2.52649 4.1065 3.92146 1 -7.29668 0.0240408 4
367 1 1.81909 1.78346 7.19676 5.16791 0.0202081 3.25021 1 -7.33904 0.0231988 4
368 1 0.885104 0.897256 8.05107 1.14043 5.00063 -3.21665 1 -7.38092 0.0228142 4
369 1 2.74062 2.72053 8.07893 1.29373 -8.73008 6.71366 1 -7.27905 0.0765343 4
370 1 3.61759 3.59789 7.15436 -1.97496 2.20385 9.65103 1 -7.27622 0.0634251 4
411 1 0.0121251 1.81636 5.4141 -3.57451 -3.09337 -1.50213 1 -7.35999 0.0153132 4
371 1 0.0475763 3.61447 7.14393 4.03584 3.44891 0.132064 1 -7.32154 0.0175527 4
651 1 3.61729 0.0116514 7.15675 2.35545 3.36622 -3.99117 1 -7.28698 0.0204212 4
372 1 4.49254 0.932503 4.44574 7.403 -7.71087 -4.61392 1 -7.36581 0.08437 4
373 1 4.48362 2.66894 6.22359 8.70782 -2.86806 -0.359397 1 -7.27059 0.0523965 4
374 1 6.2954 0.887753 6.2748 -3.47022 -3.47374 -0.0299453 1 -7.31341 0.0150068 4
375 1 6.24419 2.66775 4.45702 4.10859 -1.753 -2.89604 1 -7.40017 0.0176399 4
376 1 7.11833 1.76958 5.3206 -1.70693 0.250094 -1.3958 1 -7.28644 0.00306509 4
377 1 8.06148 0.896135 4.41391 8.89548 3.29417 2.38122 1 -7.35411 0.0595359 4
378 1 8.05234 2.66753 6.27284 3.23594 -1.32623 1.63127 1 -7.24735 0.0092687 4
379 1 5.35469 3.58641 5.34282 -2.88653 -3.49535 -2.10183 1 -7.35456 0.0155402 4
380 1 5.35785 1.78421 7.16442 5.14292 -5.22354 0.0578607 1 -7.31612 0.0334482 4
381 1 4.4641 0.90194 8.03477 1.87922 -0.735357 5.79249 1 -7.33302 0.0234189 4
382 1 6.24466 2.73611 8.02517 -12.0158 -3.80074 4.8901 1 -7.36278 0.113741 4
383 1 8.08311 0.907157 8.07065 -9.90355 3.20528 0.188134 1 -7.31503 0.0674645 4
384 1 7.12105 3.56893 7.12951 -4.36733 5.66002 -5.52585 1 -7.36433 0.0508176 4
665 1 7.18949 0.00886776 7.14876 3.07408 -0.410254 0.31566 1 -7.3743 0.00604869 4
385 1 5.34352 0.0099784 5.37689 1.95332 -5.86756 -11.3948 1 -7.249 0.104621 4
386 1 9.8116 0.894526 6.31266 -0.394653 2.32351 -4.78654 1 -7.32488 0.0177176 4
387 1 9.81663 2.67572 4.46779 -4.43167 -4.63739 -5.39485 1 -7.34016 0.0437251 4
388 1 10.669 1.75978 5.39866 -0.89278 -2.98803 -2.10327 1 -7.356 0.00880679 4
389 1 11.5818 0.864868 4.53078 0.294049 -4.05495 -1.74212 1 -7.31266 0.0121772 4
390 1 11.5775 2.66558 6.27683 -1.26024 3.97097 0.0376654 1 -7.32449 0.0108042 4
391 1 8.97353 3.58946 5.34337 -2.94317 -6.52679 3.33093 1 -7.291 0.0388122 4
392 1 12.4967 3.57661 5.36342 8.61244 -1.2082 1.02621 1 -7.39618 0.047732 4
393 1 8.96767 1.78788 7.17897 -0.543159 7.66243 -0.804991 1 -7.3498 0.0371313 4
394 1 9.83328 2.71005 8.10199 0.191834 2.69713 7.03751 1 -7.34243 0.0353774 4
395 1 12.4726 1.76988 7.14507 0.806483 8.21184 -6.39687 1 -7.37696 0.0678473 4
396 1 11.5675 0.864286 8.01785 -3.49013 -3.07585 -3.74784 1 -7.27852 0.0222132 4
397 1 10.7056 3.56063 7.15731 6.07317 -5.23955 8.99935 1 -7.36289 0.0904537 4
679 1 8.9221 0.0127019 5.34727 -0.449545 -6.00783 5.10867 1 -7.26046 0.038836 4
398 1 13.3646 0.842514 6.26912 -0.594459 2.99317 0.245453 1 -7.34183 0.0058338 4
399 1 13.3673 2.69878 4.48855 2.98551 -2.14056 -1.3931 1 -7.33946 0.00960778 4
400 1 14.2554 1.75584 5.38229 -0.0873395 -0.617346 -7.85458 1 -7.29176 0.0386422 4
401 1 15.2063 0.904509 4.49778 5.11919 6.39456 0.810246 1 -7.32458 0.0421712 4
402 1 15.0837 2.69354 6.28945 0.324351 -0.954523 3.47406 1 -7.30365 0.00814469 4
403 1 16.9304 0.914979 6.30164 -4.86097 -3.51194 1.02682 1 -7.37846 0.0230404 4
404 1 16.9495 2.71938 4.49222 2.50178 0.459871 -4.60199 1 -7.331 0.0172093 4
405 1 16.0319 3.55803 5.40117 1.96117 1.34816 -3.85155 1 -7.38275 0.0127586 4
406 1 13.349 2.63863 8.0708 2.76586 -2.56157 4.45357 1 -7.32628 0.0211911 4
407 1 16.0372 1.78622 7.18283 3.22414 -11.385 -1.92889 1 -7.26464 0.0894644 4
408 1 15.1361 0.889222 8.02345 2.88862 -1.16678 0.779587 1 -7.39882 0.00641922 4
409 1 16.9726 2.70889 8.09142 0.805752 9.94865 -2.46465 1 -7.36181 0.0657901 4
410 1 14.2714 3.58406 7.15559 3.22602 -0.0975939 10.0808 1 -7.31596 0.0697362 4
694 1 16.0922 0.00581677 5.41377 2.75407 -1.63072 0.773597 1 -7.34172 0.00674872 4
412 1 17.8489 1.82591 5.37704 -4.06874 2.21908 -10.0306 1 -7.33538 0.0759936 4
413 1 18.7227 0.901502 4.47096 4.01389 1.7012 -2.76117 1 -7.28121 0.0165749 4
414 1 18.7435 2.7087 6.28631 -0.737757 -7.42802 4.80496 1 -7.31995 0.0490518 4
415 1 20.5456 0.905193 6.311 -0.731819 6.18935 2.33519 1 -7.38291 0.0275714 4
416 1 20.5211 2.68793 4.51137 7.72295 3.23248 -6.41198 1 -7.36816 0.0692178 4
417 1 19.6191 3.59146 5.35238 1.23012 -1.82614 5.36381 1 -7.3601 0.020925 4
418 1 19.6429 1.77441 7.20074 2.97897 -6.80392 -2.13368 1 -7.31988 0.0371714 4
419 1 18.713 0.883649 8.09221 -2.57523 3.67761 0.185955 1 -7.36778 0.0125675 4
420 1 20.5382 2.72078 8.07908 -1.73372 2.29324 -3.88535 1 -7.27133 0.0145403 4
421 1 17.8554 3.57138 7.19783 8.07001 0.514978 0.111769 1 -7.36702 0.0407084 4
709 1 17.773 0.042181 7.17109 15.465 -6.61796 8.10529 1 -7.24692 0.217015 4
422 1 19.6774 -0.00477785 5.40757 5.93084 -3.46824 3.32128 1 -7.26545 0.0362467 4
423 1 0.940577 4.4915 4.48777 -0.872172 -5.15609 7.44267 1 -7.25238 0.0514991 4
424 1 0.888194 6.2765 6.29887 0.281187 -2.65762 -1.74645 1 -7.31696 0.00634384 4
425 1 2.73024 4.49919 6.24772 -2.26081 -5.59486 4.25969 1 -7.30132 0.0339588 4
426 1 2.68558 6.23675 4.51589 5.15277 -7.83695 -6.6755 1 -7.33182 0.0824909 4
427 1 3.57758 5.36679 5.37823 2.91689 1.90717 1.67358 1 -7.45674 0.00930301 4
428 1 1.76978 7.13826 5.36616 -2.16782 4.34196 9.36828 1 -7.26703 0.0692865 4
429 1 0.913253 8.0442 4.44507 -0.482215 -3.99292 -3.4493 1 -7.29805 0.0174737 4
430 1 2.70954 8.06332 6.26335 -5.30706 -4.9294 4.79744 1 -7.2194 0.0469803 4
431 1 1.80276 5.37805 7.19261 -1.00149 -2.19316 1.26182 1 -7.27099 0.00460914 4