ITEM: TIMESTEP
49124700
ITEM: NUMBER OF ATOMS
3059
ITEM: BOX BOUNDS pp pp mm
0.0000000000000000e+00 2.1394294200000001e+01
0.0000000000000000e+00 2.1394294200000001e+01
-5.3491084073550004e-03 5.3485735499999997e+01
ITEM: ATOMS id type x y z vx vy vz c_clusts c_atom_pe c_atom_ke c_atom_coord
1 1 0 0 0 0 0 0 1 -3.33199 0 2
2 1 1.78286 1.78286 0 0 0 0 1 -3.31679 0 2
3 1 0.891429 0.891429 0.891429 0 0 0 1 -7.01172 0 4
4 1 0.891178 2.66929 2.71534 -0.783083 -0.742543 -2.47046 1 -7.34802 0.00452365 4
5 1 2.64421 0.863046 2.64992 -0.647839 -3.9212 7.57657 1 -7.41297 0.0455615 4
6 1 2.67429 2.67429 0.891429 0 0 0 1 -6.99106 0 4
7 1 3.56572 0 0 0 0 0 1 -3.32941 0 2
8 1 3.50328 1.73099 1.79429 2.7276 1.01231 -6.31654 1 -7.32231 0.0301026 4
9 1 0 3.56572 0 0 0 0 1 -3.33405 0 2
10 1 1.78187 3.52552 1.829 -1.81286 0.531441 0.494634 1 -7.33858 0.00237366 4
11 1 3.56572 3.56572 0 0 0 0 1 -3.34585 0 2
12 1 1.8021 1.78215 3.58563 -0.0808816 -6.25312 13.2337 1 -7.34561 0.133349 4
13 1 3.57919 3.59613 3.57167 -9.14037 8.8474 1.43186 1 -7.32331 0.101999 4
292 1 1.79587 0.00968006 1.77892 5.33631 -0.933388 -3.27153 1 -7.35987 0.0249284 4
291 1 3.51698 0.0071776 3.53116 5.71889 -1.8111 3.03103 1 -7.24577 0.0281168 4
14 1 5.34857 1.78286 0 0 0 0 1 -3.33188 0 2
15 1 4.45714 0.891429 0.891429 0 0 0 1 -7.01647 0 4
16 1 4.39338 2.63721 2.69764 1.57837 -1.98973 -2.06847 1 -7.31862 0.00667793 4
17 1 6.22658 0.896494 2.68435 -7.2408 -2.91479 7.48482 1 -7.35504 0.0727913 4
18 1 6.24 2.67429 0.891429 0 0 0 1 -6.99034 0 4
19 1 7.13143 0 0 0 0 0 1 -3.32625 0 2
20 1 7.15501 1.7666 1.74996 -4.38882 -1.50078 2.95033 1 -7.3183 0.0188088 4
21 1 8.02286 0.891429 0.891429 0 0 0 1 -7.02473 0 4
22 1 8.01828 2.6852 2.70374 -0.207977 4.15132 0.612048 1 -7.30048 0.0109867 4
23 1 5.32037 3.53474 1.8009 -1.02978 -0.436015 1.84491 1 -7.29272 0.00289692 4
24 1 7.13143 3.56572 0 0 0 0 1 -3.35086 0 2
25 1 5.32435 1.78111 3.58206 5.74082 8.71417 -14.7285 1 -7.28526 0.202801 4
26 1 7.1641 3.60833 3.57913 10.7859 5.78172 8.3432 1 -7.39087 0.136544 4
306 1 7.07073 0.0454334 3.58695 2.96836 -3.55285 -9.93625 1 -7.35644 0.0747925 4
27 1 5.35704 0.0446322 1.78344 -1.51428 7.4468 -5.09779 1 -7.33061 0.052119 4
28 1 8.91429 1.78286 0 0 0 0 1 -3.35091 0 2
29 1 9.80078 0.920094 2.71432 7.93641 1.92443 -10.9677 1 -7.33907 0.116381 4
30 1 9.80572 2.67429 0.891429 0 0 0 1 -6.98179 0 4
31 1 10.6971 0 0 0 0 0 1 -3.35624 0 2
32 1 10.7265 1.77752 1.79329 -0.442348 2.74511 2.85399 1 -7.34828 0.00988199 4
33 1 12.48 1.78286 0 0 0 0 1 -3.33495 0 2
34 1 11.5886 0.891429 0.891429 0 0 0 1 -7.04767 0 4
35 1 11.5812 2.6858 2.65713 7.12143 0.809234 0.563806 1 -7.39184 0.0321716 4
36 1 8.92938 3.57388 1.78906 7.52835 1.48603 -0.731025 1 -7.29633 0.0369838 4
37 1 10.6971 3.56572 0 0 0 0 1 -3.33182 0 2
38 1 12.4895 3.56039 1.77609 -1.39587 -4.64007 -8.11635 1 -7.37749 0.0556162 4
39 1 8.93597 1.82138 3.58202 2.58911 4.43593 -4.0914 1 -7.30833 0.0268393 4
40 1 12.4727 1.82696 3.5718 -0.696196 -0.0545642 3.94907 1 -7.25182 0.0100103 4
41 1 10.7013 3.56037 3.58244 2.64217 -3.53821 -0.358441 1 -7.3496 0.0122173 4
319 1 10.701 0.0125763 3.5887 0.748074 -4.32034 -1.19905 1 -7.36317 0.012861 4
321 1 12.4508 0.0194821 1.80426 7.64812 8.89369 -1.97662 1 -7.32756 0.0880724 4
320 1 8.88732 0.000747765 1.82734 0.0882267 5.8677 0.360526 1 -7.3157 0.0215158 4
42 1 13.3935 0.843753 2.67921 10.7855 -1.74869 2.12601 1 -7.25594 0.0771221 4
43 1 13.3714 2.67429 0.891429 0 0 0 1 -7.0372 0 4
44 1 14.2629 0 0 0 0 0 1 -3.32056 0 2
45 1 14.2618 1.75275 1.79175 -5.12416 -5.12009 -3.15009 1 -7.34466 0.0388365 4
46 1 16.0457 1.78286 0 0 0 0 1 -3.34132 0 2
47 1 15.1543 0.891429 0.891429 0 0 0 1 -7.01227 0 4
48 1 15.186 2.62683 2.70399 4.32151 -3.67057 5.48537 1 -7.32911 0.0387385 4
49 1 16.9212 0.877945 2.7016 7.30736 -8.87972 1.98749 1 -7.29944 0.0847725 4
50 1 16.9371 2.67429 0.891429 0 0 0 1 -6.99106 0 4
51 1 14.2629 3.56572 0 0 0 0 1 -3.34094 0 2
52 1 16.0342 3.56459 1.76982 -6.86268 5.46776 -1.92617 1 -7.3502 0.0502317 4
53 1 16.0183 1.73502 3.61791 1.36886 2.35443 -3.0167 1 -7.38564 0.010281 4
54 1 14.2995 3.55661 3.58367 11.8034 4.85878 1.29362 1 -7.25557 0.102452 4
56 1 21.3801 3.56876 3.5879 9.49822 -0.509384 0.757071 1 -7.41122 0.0566712 4
55 1 21.3937 1.76991 1.81652 -2.80581 -4.69944 3.37464 1 -7.29979 0.0257345 4
57 1 17.8286 0 0 0 0 0 1 -3.3395 0 2
58 1 17.8499 1.78543 1.80716 2.78028 -0.122521 -4.46463 1 -7.32567 0.0172274 4
59 1 19.6114 1.78286 0 0 0 0 1 -3.34115 0 2
60 1 18.72 0.891429 0.891429 0 0 0 1 -7.02714 0 4
61 1 18.7609 2.67805 2.73117 5.13241 1.3973 -2.92024 1 -7.32905 0.0229189 4
62 1 20.4807 0.884352 2.69825 3.67047 2.6591 3.59198 1 -7.3371 0.0208174 4
63 1 20.5029 2.67429 0.891429 0 0 0 1 -7.00126 0 4
64 1 17.8286 3.56572 0 0 0 0 1 -3.33532 0 2
65 1 19.6725 3.5537 1.79975 3.05262 -1.19575 1.54414 1 -7.29261 0.00817412 4
66 1 19.6215 1.77295 3.64097 -3.62236 -2.70248 -0.0376982 1 -7.35775 0.0127139 4
67 1 17.8988 3.55075 3.61041 3.6186 2.17898 2.00061 1 -7.28549 0.0135967 4
68 1 19.6238 0.0193087 1.76133 -2.20862 2.27498 -2.1201 1 -7.35587 0.00905528 4
349 1 17.8491 0.0444766 3.59555 0.417815 -5.85466 -1.54794 1 -7.31972 0.022935 4
69 1 1.78286 5.34857 0 0 0 0 1 -3.35184 0 2
70 1 0.891429 4.45714 0.891429 0 0 0 1 -6.96701 0 4
71 1 0.890682 6.23025 2.65321 -3.75586 4.2135 9.26264 1 -7.27549 0.0732326 4
72 1 2.66046 4.4357 2.68913 4.21583 3.96394 -0.362267 1 -7.37361 0.0209242 4
73 1 2.67429 6.24 0.891429 0 0 0 1 -6.98668 0 4
74 1 3.51417 5.32754 1.79363 6.48894 6.38227 -0.33821 1 -7.32034 0.0516328 4
75 1 0 7.13143 0 0 0 0 1 -3.36012 0 2
76 1 1.81137 7.16899 1.79496 1.50097 5.78079 -1.95647 1 -7.29561 0.0245847 4
77 1 0.891429 8.02286 0.891429 0 0 0 1 -7.03521 0 4
78 1 2.69606 8.03518 2.68761 4.84118 5.94826 -3.60913 1 -7.37895 0.044718 4
79 1 3.56572 7.13143 0 0 0 0 1 -3.33372 0 2
80 1 1.81879 5.35813 3.5984 8.10116 2.5698 9.93612 1 -7.30823 0.106409 4
81 1 3.61418 7.15053 3.54507 1.67399 -3.4826 9.64583 1 -7.40037 0.067205 4
82 1 0.0059206 7.17364 3.53791 -2.86773 2.10281 -0.216925 1 -7.2197 0.00790028 4
128 1 0.00636693 5.32635 1.7999 -0.552864 7.77236 9.0906 1 -7.38973 0.0892275 4
83 1 5.34857 5.34857 0 0 0 0 1 -3.36694 0 2
84 1 4.45714 4.45714 0.891429 0 0 0 1 -6.9622 0 4
85 1 4.45953 6.26255 2.65087 3.8723 -3.92036 -3.65905 1 -7.33344 0.0272328 4
86 1 6.27275 4.47978 2.66927 -4.14322 -1.98056 -6.90889 1 -7.33495 0.0428364 4
87 1 6.24 6.24 0.891429 0 0 0 1 -7.01094 0 4
88 1 7.15438 5.35115 1.80389 -0.622974 -1.26368 0.471123 1 -7.3751 0.00137366 4
89 1 8.02286 4.45714 0.891429 0 0 0 1 -7.02159 0 4
90 1 8.03643 6.23735 2.67553 -4.46381 -11.6343 16.6983 1 -7.31655 0.270205 4
91 1 5.36468 7.13545 1.77641 -4.99328 -2.2943 -0.750284 1 -7.38696 0.0191456 4
92 1 4.45714 8.02286 0.891429 0 0 0 1 -7.01757 0 4
93 1 6.2309 7.97788 2.69225 -8.05318 -3.90915 -2.20345 1 -7.32852 0.0529002 4
94 1 7.13143 7.13143 0 0 0 0 1 -3.32388 0 2
95 1 8.02286 8.02286 0.891429 0 0 0 1 -6.94978 0 4
96 1 5.36212 5.35488 3.55743 -11.0497 -1.34137 -3.77684 1 -7.33856 0.0859939 4
97 1 7.10079 7.14246 3.58781 4.60676 -0.13416 -8.40328 1 -7.33945 0.0571732 4
98 1 8.91429 5.34857 0 0 0 0 1 -3.34538 0 2
99 1 9.85764 4.42894 2.69808 -6.01844 -0.251689 -2.02137 1 -7.30143 0.0251279 4
100 1 9.80572 6.24 0.891429 0 0 0 1 -7.01169 0 4
101 1 10.7216 5.3332 1.80518 -7.11096 -3.69492 -2.84454 1 -7.36126 0.0450074 4
102 1 12.48 5.34857 0 0 0 0 1 -3.34948 0 2
103 1 11.5886 4.45714 0.891429 0 0 0 1 -7.00595 0 4
104 1 11.5689 6.22602 2.70082 0.0653341 -0.394741 -7.81583 1 -7.30647 0.0381219 4
105 1 8.96709 7.12104 1.81061 1.31781 -6.18621 1.7991 1 -7.32745 0.0269153 4
106 1 9.80258 8.04004 2.69326 0.189382 -4.02552 4.6097 1 -7.38224 0.0233348 4
107 1 10.6971 7.13143 0 0 0 0 1 -3.3503 0 2
108 1 12.4935 7.15284 1.82126 1.03275 -10.0797 0.0330716 1 -7.27006 0.0639035 4
109 1 11.5886 8.02286 0.891429 0 0 0 1 -6.99306 0 4
110 1 8.91142 5.32588 3.59434 -3.64988 2.36532 1.88344 1 -7.28552 0.013982 4
111 1 12.4903 5.32052 3.57188 -4.61551 1.71791 1.44988 1 -7.36602 0.0164049 4
112 1 10.6977 7.14722 3.56702 0.689456 0.125362 -4.85657 1 -7.34546 0.0149864 4
113 1 13.3695 4.46963 2.66295 4.86142 -10.5362 -2.65272 1 -7.3853 0.0881866 4
114 1 13.3714 6.24 0.891429 0 0 0 1 -6.9516 0 4
115 1 14.2735 5.34827 1.81139 -5.93567 4.22192 0.332119 1 -7.34019 0.0330926 4
116 1 16.0457 5.34857 0 0 0 0 1 -3.33939 0 2
117 1 15.1543 4.45714 0.891429 0 0 0 1 -7.0513 0 4
118 1 15.1234 6.29427 2.6521 6.04712 0.75994 -5.88722 1 -7.28528 0.044693 4
119 1 16.9366 4.43201 2.68402 -4.40432 6.18153 -4.24421 1 -7.33588 0.0470695 4
120 1 16.9371 6.24 0.891429 0 0 0 1 -7.0413 0 4
121 1 13.3904 8.03648 2.74113 3.97298 3.47059 3.77899 1 -7.30359 0.0262106 4
122 1 14.2629 7.13143 0 0 0 0 1 -3.33904 0 2
123 1 16.0771 7.14851 1.75193 2.7212 -4.50528 -4.58589 1 -7.30149 0.0303326 4
124 1 15.1543 8.02286 0.891429 0 0 0 1 -7.00652 0 4
125 1 16.9827 8.03532 2.68792 -0.300563 8.16739 -0.838857 1 -7.36851 0.0420139 4
126 1 16.0688 5.35206 3.55701 -2.42768 -11.032 7.32409 1 -7.22606 0.112809 4
127 1 14.2421 7.17742 3.5622 1.58973 3.21778 -0.231878 1 -7.39478 0.00805115 4
129 1 17.825 5.33229 1.78347 0.0276643 -3.58466 3.40899 1 -7.34638 0.0152319 4
130 1 19.6114 5.34857 0 0 0 0 1 -3.31028 0 2
131 1 18.72 4.45714 0.891429 0 0 0 1 -6.98788 0 4
132 1 18.6986 6.20764 2.67079 1.41046 2.0753 -0.130978 1 -7.44157 0.00392965 4
133 1 20.5516 4.44248 2.70083 -3.06779 -1.00387 -0.880764 1 -7.41548 0.00696796 4
134 1 20.5029 6.24 0.891429 0 0 0 1 -6.98171 0 4
135 1 17.8286 7.13143 0 0 0 0 1 -3.3117 0 2
136 1 19.5607 7.11711 1.7808 -1.79438 -4.98645 5.44984 1 -7.33127 0.0359671 4
137 1 18.72 8.02286 0.891429 0 0 0 1 -6.98347 0 4
138 1 20.4715 8.02863 2.63883 -1.27353 1.87738 -6.55872 1 -7.29609 0.0299781 4
139 1 19.6153 5.33485 3.52073 -4.44671 -2.5759 4.93954 1 -7.29662 0.0316239 4
140 1 17.8311 7.10477 3.54741 0.750953 -2.97639 0.33934 1 -7.3399 0.00593671 4
141 1 1.78286 8.91429 0 0 0 0 1 -3.31562 0 2
142 1 0.877618 9.81818 2.68119 9.99358 -2.18639 -3.61841 1 -7.36705 0.0732875 4
143 1 2.67429 9.80572 0.891429 0 0 0 1 -7.02393 0 4
144 1 3.54667 8.92217 1.76241 3.34891 -4.36435 3.02049 1 -7.36647 0.024515 4
145 1 0 10.6971 0 0 0 0 1 -3.34081 0 2
146 1 1.74253 10.6981 1.79135 -2.23742 -2.64806 10.973 1 -7.38605 0.0824246 4
147 1 1.78286 12.48 0 0 0 0 1 -3.32861 0 2
148 1 0.891429 11.5886 0.891429 0 0 0 1 -7.03636 0 4
149 1 2.61033 11.5943 2.69966 -10.0803 -2.75117 -2.05818 1 -7.28723 0.0705946 4
150 1 3.56572 10.6971 0 0 0 0 1 -3.35271 0 2
151 1 3.56552 12.4714 1.80282 6.50711 2.57043 1.19975 1 -7.36809 0.0313635 4
152 1 1.76417 8.93432 3.56617 12.2409 0.731945 4.03526 1 -7.32783 0.103732 4
153 1 1.7364 12.4852 3.64139 -1.70084 -1.50159 7.56874 1 -7.3757 0.0388602 4
154 1 3.53316 10.7231 3.57607 -1.36833 -6.11805 -0.198139 1 -7.31999 0.0244875 4
205 1 0.021523 8.88733 1.77539 7.79864 -5.71945 -1.6322 1 -7.33236 0.0598743 4
204 1 0.0274687 12.5029 1.75508 12.8013 -1.76385 -1.01066 1 -7.30897 0.104571 4
155 1 5.34857 8.91429 0 0 0 0 1 -3.32129 0 2
156 1 4.45331 9.83233 2.64504 5.76715 -4.29994 1.73542 1 -7.33241 0.0340848 4
157 1 6.24 9.80572 0.891429 0 0 0 1 -6.99138 0 4
158 1 7.09949 8.88782 1.79095 1.80428 1.74861 -9.20384 1 -7.33671 0.0566555 4
159 1 7.98779 9.78013 2.67003 -4.37863 -0.62519 9.96397 1 -7.37116 0.0739715 4
160 1 5.3346 10.7423 1.79764 0.415153 -2.23549 5.3148 1 -7.31268 0.0207995 4
161 1 5.34857 12.48 0 0 0 0 1 -3.33157 0 2
162 1 4.45714 11.5886 0.891429 0 0 0 1 -7.02802 0 4
163 1 6.20851 11.5947 2.75305 -2.82825 0.12174 7.6205 1 -7.35742 0.0411335 4
164 1 7.13143 10.6971 0 0 0 0 1 -3.32916 0 2
165 1 7.07095 12.4722 1.8032 -1.56173 -0.35794 -0.28013 1 -7.26554 0.00164668 4
166 1 8.02286 11.5886 0.891429 0 0 0 1 -7.00551 0 4
167 1 5.33461 8.9825 3.56784 -1.27195 -8.47787 -1.20998 1 -7.25085 0.0466547 4
168 1 5.36707 12.498 3.59558 -1.70533 7.52185 4.562 1 -7.36774 0.0499797 4
169 1 7.15296 10.6965 3.56847 5.74718 0.959564 -3.32918 1 -7.35876 0.0280305 4
170 1 8.91429 8.91429 0 0 0 0 1 -3.33768 0 2
171 1 9.80572 9.80572 0.891429 0 0 0 1 -6.95375 0 4
172 1 10.7133 8.92812 1.7991 -5.51001 5.56446 -4.54589 1 -7.35513 0.0510318 4
173 1 12.48 8.91429 0 0 0 0 1 -3.33141 0 2
174 1 11.6161 9.77925 2.67775 -0.921851 0.659781 1.66854 1 -7.31431 0.00253274 4
175 1 8.86916 10.7388 1.78173 -4.07851 -1.94089 0.444696 1 -7.32897 0.0128214 4
176 1 8.91429 12.48 0 0 0 0 1 -3.32859 0 2
177 1 9.79881 11.5723 2.63143 4.70893 -0.200987 -2.89755 1 -7.39648 0.0190526 4
178 1 10.6971 10.6971 0 0 0 0 1 -3.32409 0 2
179 1 10.7017 12.4483 1.79097 2.64035 -4.00284 10.1654 1 -7.34906 0.0786303 4
180 1 12.4873 10.6867 1.7933 -1.17368 -5.96199 -0.476027 1 -7.35695 0.0231228 4
181 1 12.48 12.48 0 0 0 0 1 -3.34572 0 2
182 1 11.5886 11.5886 0.891429 0 0 0 1 -7.01674 0 4
183 1 8.88097 8.88914 3.5576 5.4221 -4.09482 4.3374 1 -7.3763 0.0404451 4
184 1 12.485 8.87255 3.61513 2.72178 -1.37786 5.59991 1 -7.35564 0.0253113 4
185 1 8.94614 12.4579 3.5785 4.984 4.99619 -0.827454 1 -7.32595 0.0314243 4
186 1 10.6798 10.7212 3.55772 -0.711806 -1.79412 -0.60078 1 -7.24835 0.00254352 4
187 1 12.451 12.4732 3.55421 -6.08859 0.251874 -2.94096 1 -7.37723 0.0284969 4
188 1 13.3714 9.80572 0.891429 0 0 0 1 -7.02342 0 4
189 1 14.2723 8.90625 1.78729 3.86785 12.067 -6.22255 1 -7.35277 0.124046 4
190 1 16.0457 8.91429 0 0 0 0 1 -3.33415 0 2
191 1 15.187 9.79354 2.65556 -1.49862 -2.98661 0.403944 1 -7.22161 0.00705138 4
192 1 16.9371 9.80572 0.891429 0 0 0 1 -6.98568 0 4
193 1 13.3437 11.6118 2.65965 -2.33566 -0.651708 1.4752 1 -7.4115 0.00501441 4
194 1 14.2629 10.6971 0 0 0 0 1 -3.35574 0 2
195 1 14.2657 12.4732 1.8103 -1.56481 -3.97261 -6.9381 1 -7.39326 0.0413089 4
196 1 16.0869 10.7554 1.77152 -5.5796 0.720846 -2.89725 1 -7.30988 0.0249254 4
197 1 16.0457 12.48 0 0 0 0 1 -3.31335 0 2
198 1 15.1543 11.5886 0.891429 0 0 0 1 -7.00994 0 4
199 1 16.9764 11.6116 2.65444 -0.136404 6.28161 -9.60042 1 -7.32198 0.0819394 4
200 1 16.0509 8.91943 3.52977 2.5054 -2.72534 -7.71044 1 -7.37688 0.0455339 4
201 1 14.2159 10.7181 3.54882 -2.47009 -7.49248 -4.35079 1 -7.29632 0.050521 4
202 1 16.0694 12.4806 3.57277 1.46847 -5.93827 2.9675 1 -7.3916 0.0287719 4
203 1 21.3716 10.6885 3.60749 -2.48759 -0.534557 -2.48135 1 -7.37291 0.00786186 4
206 1 17.8072 8.90372 1.81155 0.517887 -2.62987 -6.23673 1 -7.33761 0.0286821 4
207 1 19.6114 8.91429 0 0 0 0 1 -3.35557 0 2
208 1 18.7341 9.79297 2.66663 -11.621 -1.85834 -1.05169 1 -7.34837 0.0868948 4
209 1 20.5029 9.80572 0.891429 0 0 0 1 -6.95423 0 4
210 1 17.8286 10.6971 0 0 0 0 1 -3.3216 0 2
211 1 17.8117 12.4692 1.79568 2.92612 4.36451 -2.35853 1 -7.332 0.0206482 4
212 1 19.6133 10.6889 1.83097 0.778444 -1.32581 -9.76817 1 -7.33629 0.0608614 4
213 1 19.6114 12.48 0 0 0 0 1 -3.34498 0 2
214 1 18.72 11.5886 0.891429 0 0 0 1 -6.98268 0 4
215 1 20.5106 11.6018 2.71678 -1.76728 -0.964419 -3.97589 1 -7.29658 0.0123621 4
216 1 19.5563 8.88163 3.58527 -6.39014 -3.07178 -4.38601 1 -7.28438 0.0432629 4
217 1 17.8858 10.6871 3.56447 2.93125 1.13627 -2.98334 1 -7.29204 0.0116914 4
218 1 19.58 12.4993 3.56111 -2.97729 0.82291 -0.724087 1 -7.35252 0.00626519 4
219 1 0.905594 13.3816 2.68893 -1.15529 2.59551 -4.5207 1 -7.33403 0.0177442 4
220 1 2.67429 13.3714 0.891429 0 0 0 1 -7.00677 0 4
221 1 0 14.2629 0 0 0 0 1 -3.31578 0 2
222 1 1.78312 14.256 1.76239 4.47322 -4.05146 -1.2974 1 -7.38037 0.0237189 4
223 1 1.78286 16.0457 0 0 0 0 1 -3.32311 0 2
224 1 0.891429 15.1543 0.891429 0 0 0 1 -7.04311 0 4
225 1 0.891923 16.9189 2.64032 -2.32757 -3.50538 -0.290799 1 -7.33253 0.0110728 4
226 1 2.68539 15.1285 2.66281 -0.708989 2.92006 1.8947 1 -7.29238 0.0078546 4
227 1 2.67429 16.9371 0.891429 0 0 0 1 -7.0044 0 4
228 1 3.56572 14.2629 0 0 0 0 1 -3.34407 0 2
229 1 3.55592 16.04 1.79638 -5.3451 -5.98723 -7.01015 1 -7.36591 0.0706823 4
230 1 1.76474 16.0006 3.58295 2.98006 -2.14366 -3.91169 1 -7.27013 0.0179118 4
231 1 3.58677 14.2298 3.60414 3.25113 1.59969 6.5584 1 -7.29494 0.0349439 4
233 1 0.00165081 16.0259 1.74474 5.61077 3.34795 0.886365 1 -7.31884 0.0270601 4
234 1 4.44656 13.3306 2.69063 -5.23632 6.03663 0.331335 1 -7.35291 0.0398165 4
235 1 6.24 13.3714 0.891429 0 0 0 1 -6.93805 0 4
236 1 7.97083 13.3356 2.68461 -4.54701 8.2232 3.96386 1 -7.31039 0.0647376 4
237 1 5.30804 14.2962 1.83154 5.54913 6.51932 -2.76208 1 -7.2362 0.0503689 4
238 1 5.34857 16.0457 0 0 0 0 1 -3.36156 0 2
239 1 4.45714 15.1543 0.891429 0 0 0 1 -6.997 0 4
240 1 4.46463 16.9362 2.66089 -1.69089 6.18842 -4.45108 1 -7.37219 0.0379479 4
241 1 6.26982 15.1715 2.68102 8.95639 -1.22512 11.8154 1 -7.31059 0.137756 4
242 1 6.24 16.9371 0.891429 0 0 0 1 -6.98978 0 4
243 1 7.13143 14.2629 0 0 0 0 1 -3.34456 0 2
244 1 7.16505 16.0617 1.78069 -3.33229 1.47376 -4.0419 1 -7.39953 0.018432 4
245 1 8.02286 15.1543 0.891429 0 0 0 1 -7.00136 0 4
246 1 7.9848 16.9485 2.69182 0.106735 -2.60051 -0.171883 1 -7.28454 0.00423473 4
247 1 5.34109 16.0308 3.56867 3.92019 3.93105 -2.394 1 -7.28877 0.0227511 4
248 1 7.08603 14.2514 3.58134 -6.37825 2.90827 4.92823 1 -7.39196 0.0457032 4
249 1 9.80572 13.3714 0.891429 0 0 0 1 -6.97509 0 4
250 1 11.5431 13.3916 2.66812 2.16041 -5.47225 7.51655 1 -7.2981 0.0567102 4
251 1 8.87513 14.2081 1.79012 -1.96382 -2.84086 -1.85754 1 -7.35801 0.00957138 4
252 1 8.91429 16.0457 0 0 0 0 1 -3.34232 0 2
253 1 9.74829 15.131 2.64015 -7.76752 -4.51851 6.5267 1 -7.2866 0.0767757 4
254 1 9.80572 16.9371 0.891429 0 0 0 1 -7.03543 0 4
255 1 10.6971 14.2629 0 0 0 0 1 -3.36188 0 2
256 1 10.6919 16.06 1.78142 -9.40072 -0.691429 -2.14305 1 -7.27686 0.0581622 4
257 1 12.4695 14.3012 1.77241 -0.125521 1.38086 5.47583 1 -7.29888 0.0198599 4
258 1 12.48 16.0457 0 0 0 0 1 -3.32208 0 2
259 1 11.5886 15.1543 0.891429 0 0 0 1 -6.99488 0 4
260 1 11.6197 16.9689 2.67616 3.5734 -0.0903285 2.99943 1 -7.29744 0.0135527 4
261 1 8.90013 16.0395 3.59751 -4.09542 2.90088 -5.27243 1 -7.2635 0.0329799 4
262 1 10.6611 14.2808 3.559 -8.12835 0.191234 2.51065 1 -7.3248 0.0450698 4
263 1 12.4516 16.0351 3.57157 -3.99328 -0.565488 -5.56436 1 -7.38736 0.029396 4
264 1 13.3714 13.3714 0.891429 0 0 0 1 -6.99034 0 4
265 1 15.1491 13.311 2.65991 -4.72591 -1.07981 -3.53064 1 -7.29225 0.022386 4
266 1 16.9371 13.3714 0.891429 0 0 0 1 -6.99201 0 4
267 1 13.3743 15.2092 2.6718 11.9878 -1.5215 -5.37128 1 -7.31458 0.108845 4
268 1 13.3714 16.9371 0.891429 0 0 0 1 -7.01098 0 4
269 1 14.2629 14.2629 0 0 0 0 1 -3.3232 0 2
270 1 14.2694 16.0294 1.744 -6.58993 -0.471916 4.91282 1 -7.39755 0.0421916 4
271 1 16.0295 14.2687 1.78812 -6.4184 -1.83452 2.97545 1 -7.35487 0.0332467 4
272 1 16.0457 16.0457 0 0 0 0 1 -3.34336 0 2
273 1 15.1543 15.1543 0.891429 0 0 0 1 -7.05039 0 4
274 1 15.1591 16.9517 2.60678 -1.12077 -3.83402 5.00695 1 -7.22557 0.0255353 4
275 1 16.9194 15.1599 2.67116 -2.95628 5.39178 0.0153345 1 -7.32924 0.0235346 4
276 1 16.9371 16.9371 0.891429 0 0 0 1 -7.04782 0 4
277 1 14.2334 14.2707 3.58496 -0.872446 -7.85937 -2.65938 1 -7.26305 0.0433228 4
278 1 16.0393 16.0787 3.60901 -6.14341 4.68387 2.70086 1 -7.25357 0.0416869 4
232 1 21.3736 14.2391 3.56639 6.02815 6.98254 -2.82835 1 -7.3202 0.0579441 4
279 1 18.6991 13.37 2.68333 5.74859 1.00027 -7.27047 1 -7.3847 0.0540929 4
280 1 20.5029 13.3714 0.891429 0 0 0 1 -7.03378 0 4
281 1 17.8286 14.2629 0 0 0 0 1 -3.32955 0 2
282 1 17.7939 16.059 1.77846 6.4824 6.64754 3.22445 1 -7.35144 0.0601316 4
283 1 19.5893 14.2503 1.78579 11.3401 0.773379 -2.33647 1 -7.37912 0.0838125 4
284 1 19.6114 16.0457 0 0 0 0 1 -3.32562 0 2
285 1 18.72 15.1543 0.891429 0 0 0 1 -6.99644 0 4
286 1 18.711 16.8886 2.68745 -6.01248 8.70626 2.95004 1 -7.33262 0.0750967 4
287 1 20.453 15.1146 2.67878 2.56717 12.9522 3.26092 1 -7.33011 0.115139 4
288 1 20.5029 16.9371 0.891429 0 0 0 1 -7.03106 0 4
289 1 17.8221 14.2898 3.56132 -0.96828 2.14747 0.259549 1 -7.3473 0.00349588 4
290 1 19.6085 16.0334 3.57629 2.19903 -3.30029 -3.83009 1 -7.34441 0.01892 4
293 1 0 17.8286 0 0 0 0 1 -3.34148 0 2
294 1 1.75191 17.8243 1.77787 -1.0328 5.16645 -4.70753 1 -7.34052 0.0310713 4
295 1 1.78286 19.6114 0 0 0 0 1 -3.34376 0 2
296 1 0.891429 18.72 0.891429 0 0 0 1 -7.03259 0 4
297 1 0.887695 20.4905 2.65967 -2.88493 -3.576 -0.391807 1 -7.38553 0.0132354 4
298 1 2.64411 18.7045 2.69788 3.72347 4.09386 -0.0107224 1 -7.34192 0.0190612 4
299 1 2.67429 20.5029 0.891429 0 0 0 1 -7.04185 0 4
300 1 3.56572 17.8286 0 0 0 0 1 -3.33571 0 2
301 1 3.51312 19.6198 1.76958 0.232294 7.76294 9.44302 1 -7.27877 0.0930451 4
302 1 1.76422 19.5914 3.58532 -0.815284 3.32491 5.9918 1 -7.33532 0.0296408 4
303 1 3.61215 17.8151 3.53726 1.03477 -4.3849 -5.87297 1 -7.30931 0.0341027 4
305 1 0.0156731 19.5952 1.80604 -2.99581 6.47688 -2.8454 1 -7.34873 0.0367363 4
304 1 0.0231777 17.8406 3.56142 -1.22825 7.37515 -3.04109 1 -7.29326 0.0405509 4
350 1 0.036609 21.3879 3.53008 -1.43403 0.839019 11.6933 1 -7.29443 0.0868242 4
307 1 5.35691 17.8501 1.78725 6.94082 -2.15971 2.34339 1 -7.41237 0.0363066 4
308 1 5.34857 19.6114 0 0 0 0 1 -3.34572 0 2
309 1 4.45714 18.72 0.891429 0 0 0 1 -6.99046 0 4
310 1 4.47583 20.4855 2.66728 -4.08255 3.38713 1.61061 1 -7.26589 0.0191296 4
311 1 6.24512 18.6926 2.66059 -9.30013 1.75418 1.76585 1 -7.36841 0.0576913 4
312 1 6.24 20.5029 0.891429 0 0 0 1 -6.97601 0 4
313 1 7.13143 17.8286 0 0 0 0 1 -3.32088 0 2
314 1 7.13302 19.6212 1.81211 4.27701 3.56971 -3.4044 1 -7.35967 0.0265313 4
315 1 8.02286 18.72 0.891429 0 0 0 1 -6.97826 0 4
316 1 7.97916 20.5193 2.69596 3.34754 8.26388 2.48655 1 -7.36374 0.0533299 4
317 1 5.34406 19.5955 3.56762 -2.50315 2.7513 2.32961 1 -7.3404 0.0119895 4
318 1 7.13836 17.8795 3.58093 2.25794 2.09145 -1.49917 1 -7.38933 0.00729482 4
322 1 8.91303 17.8206 1.78173 -9.21787 -2.19103 -3.9482 1 -7.30307 0.0655776 4
323 1 8.91429 19.6114 0 0 0 0 1 -3.33129 0 2
324 1 9.75462 18.7449 2.67881 5.2295 7.54845 -1.342 1 -7.35685 0.0536082 4
325 1 9.80572 20.5029 0.891429 0 0 0 1 -6.98824 0 4
326 1 10.6971 17.8286 0 0 0 0 1 -3.32595 0 2
327 1 10.6672 19.622 1.75762 -1.35799 -0.101198 -3.15566 1 -7.37181 0.00735245 4
328 1 12.496 17.8215 1.77561 -2.54215 4.19784 -6.13694 1 -7.42144 0.0384325 4
329 1 12.48 19.6114 0 0 0 0 1 -3.33023 0 2
330 1 11.5886 18.72 0.891429 0 0 0 1 -7.02907 0 4
331 1 11.554 20.5143 2.66541 -7.42145 -0.295553 -0.0646219 1 -7.34304 0.0343389 4
332 1 8.91548 19.6437 3.56938 2.38866 0.66753 2.91907 1 -7.38695 0.0091324 4
333 1 10.628 17.8171 3.54219 -8.05307 -1.49023 2.53613 1 -7.33791 0.0457513 4
334 1 12.4626 19.6594 3.58817 8.80972 -0.595749 0.312048 1 -7.29533 0.0485887 4
335 1 16.0508 21.3831 1.76161 0.0290455 0.103287 2.72137 1 -7.38135 0.00461675 4
336 1 14.2518 21.3497 3.61606 5.56055 -0.576482 -0.897202 1 -7.36835 0.0199531 4
337 1 13.3957 18.7021 2.67159 4.58872 2.85789 0.785869 1 -7.23354 0.0185741 4
338 1 13.3714 20.5029 0.891429 0 0 0 1 -6.98615 0 4
339 1 14.2629 17.8286 0 0 0 0 1 -3.33593 0 2
340 1 14.2768 19.6286 1.76578 -3.73433 -2.25892 -3.88411 1 -7.35525 0.021246 4
341 1 16.0888 17.8329 1.76297 -4.58991 -1.99561 0.829426 1 -7.38365 0.0160198 4
342 1 16.0457 19.6114 0 0 0 0 1 -3.3208 0 2
343 1 15.1543 18.72 0.891429 0 0 0 1 -6.98309 0 4
344 1 15.1805 20.513 2.65932 -2.84427 7.62311 6.68395 1 -7.33034 0.0690126 4
345 1 16.97 18.7283 2.669 5.87596 2.13261 4.75722 1 -7.38335 0.0384075 4
346 1 16.9371 20.5029 0.891429 0 0 0 1 -7.01818 0 4
347 1 14.2611 17.8109 3.57621 -2.47815 0.384658 4.50467 1 -7.3087 0.0165449 4
348 1 16.0635 19.6414 3.55012 8.43706 5.13179 5.69373 1 -7.33651 0.0808767 4
351 1 17.8286 17.8286 0 0 0 0 1 -3.33049 0 2
352 1 17.8562 19.6328 1.81074 -6.70847 1.1396 4.76239 1 -7.35039 0.0429366 4
353 1 19.6105 17.7805 1.77954 -1.40185 5.43227 2.60775 1 -7.35 0.0238234 4
354 1 19.6114 19.6114 0 0 0 0 1 -3.33794 0 2
355 1 18.72 18.72 0.891429 0 0 0 1 -6.97191 0 4
356 1 18.7322 20.528 2.69089 0.852298 -8.34374 7.54691 1 -7.33 0.0792351 4
357 1 20.4677 18.7238 2.65811 -9.73162 4.90447 -0.715119 1 -7.30885 0.0742366 4
358 1 20.5029 20.5029 0.891429 0 0 0 1 -6.99513 0 4
359 1 17.8284 17.8508 3.55912 0.609779 7.80029 -7.77864 1 -7.37324 0.0757639 4
360 1 19.625 19.6153 3.59013 -8.63627 -0.513715 -3.14947 1 -7.3501 0.052762 4
361 1 0.902255 0.896613 4.47336 -2.78134 1.95661 4.66203 1 -7.37479 0.020726 4
362 1 0.886394 2.70652 6.26863 12.5114 -3.72935 5.96972 1 -7.285 0.12827 4
363 1 2.67266 0.871833 6.21863 4.62532 -1.42957 2.37668 1 -7.32524 0.0181038 4
364 1 2.69785 2.70823 4.4592 0.328774 -6.56099 6.12913 1 -7.35179 0.0502428 4
365 1 3.54195 1.87991 5.36182 -0.78075 0.766068 -13.7846 1 -7.2679 0.119015 4
366 1 1.7795 3.63894 5.34063 4.38248 -6.02193 1.48638 1 -7.3108 0.035901 4
367 1 1.81067 1.79112 7.14233 0.579042 1.02432 4.34811 1 -7.28785 0.0126294 4
368 1 0.951067 0.867913 8.06864 -2.0456 -0.933402 2.148 1 -7.27546 0.00601862 4
369 1 2.63667 2.69715 8.0108 -0.991527 12.1995 2.95056 1 -7.3497 0.0986644 4
370 1 3.54932 3.5967 7.12059 10.5469 1.09046 -5.04675 1 -7.36004 0.0858297 4
411 1 0.0335562 1.7558 5.40072 5.28792 5.64814 7.82847 1 -7.36724 0.075406 4
371 1 0.0248422 3.56486 7.18121 -1.62284 -3.10565 -1.30715 1 -7.31066 0.00870606 4
372 1 4.4463 0.894029 4.49074 0.496347 5.05312 3.17264 1 -7.20627 0.0223115 4
373 1 4.44728 2.72043 6.2438 -3.55911 -4.04946 1.92789 1 -7.42229 0.0204045 4
374 1 6.22923 0.949061 6.27401 6.20115 -3.65061 -1.65329 1 -7.37347 0.0339313 4
375 1 6.26729 2.72013 4.46321 -4.7384 0.458202 1.8556 1 -7.28708 0.0162488 4
376 1 7.15926 1.81599 5.38592 4.56067 -6.57894 -3.18253 1 -7.35176 0.0461906 4
377 1 7.98608 0.912455 4.49536 -7.13063 -6.36096 -6.53578 1 -7.27889 0.0834202 4
378 1 8.07826 2.67487 6.24161 -5.59235 1.39725 -4.89155 1 -7.37806 0.0355741 4
379 1 5.35388 3.56797 5.35949 0.129108 -2.06746 0.818076 1 -7.28967 0.00308742 4
380 1 5.36274 1.83845 7.11949 -1.32381 2.63985 0.890358 1 -7.33511 0.00592178 4
381 1 4.45463 0.922639 8.03291 0.618732 -1.98762 3.64253 1 -7.33424 0.0109556 4
382 1 6.28949 2.64006 8.05757 2.53416 8.2091 -4.01223 1 -7.28406 0.0559619 4
383 1 8.01378 0.873148 8.03746 12.4486 0.638842 -0.246097 1 -7.37185 0.0967481 4
384 1 7.21025 3.57526 7.14671 1.39133 -1.45819 2.46567 1 -7.30905 0.00631245 4
665 1 7.12273 0.0354583 7.17762 2.85858 -2.76847 3.19247 1 -7.33047 0.0162004 4
385 1 5.35332 0.0439029 5.40967 4.01032 1.78298 7.98514 1 -7.39351 0.0516764 4
386 1 9.82469 0.881189 6.21731 -3.88574 -3.7696 9.21685 1 -7.35816 0.0711179 4
387 1 9.85219 2.68961 4.49826 3.16052 2.08907 -0.191588 1 -7.35068 0.0089566 4
388 1 10.7347 1.78962 5.36969 -1.67621 2.36106 7.1303 1 -7.34901 0.0368635 4
389 1 11.6044 0.911944 4.43815 -1.56817 -1.03194 3.80277 1 -7.31471 0.0111944 4
390 1 11.587 2.66404 6.27218 2.33256 -3.92099 -2.25123 1 -7.36311 0.0161103 4
391 1 8.94037 3.5565 5.41133 3.92061 8.62059 -1.33592 1 -7.35226 0.0569335 4
392 1 12.4323 3.56761 5.36956 -7.20196 0.539595 0.972077 1 -7.28237 0.0330535 4
393 1 8.91377 1.76351 7.13486 4.5106 -1.25059 10.9706 1 -7.34456 0.0885487 4
394 1 9.78381 2.64464 8.01703 1.72262 2.6886 -3.40092 1 -7.25635 0.0135454 4
395 1 12.4658 1.74809 7.1759 -0.0239251 -9.14783 2.93088 1 -7.34773 0.0574334 4
396 1 11.5884 0.835019 8.09196 -1.06586 4.33308 0.309802 1 -7.3754 0.0124533 4
397 1 10.7029 3.58795 7.16085 -1.25456 4.92661 -7.77439 1 -7.29877 0.053707 4
680 1 12.4903 0.0104977 5.3948 0.034863 0.118953 4.65711 1 -7.28978 0.0135092 4
679 1 8.91784 0.00563072 5.37246 1.53396 6.01447 0.978682 1 -7.35335 0.0245763 4
398 1 13.3715 0.890281 6.30432 0.125134 -4.99819 -4.43536 1 -7.36046 0.0278038 4
399 1 13.3893 2.65613 4.4979 -0.459944 -1.74621 2.97456 1 -7.30389 0.00753685 4
400 1 14.263 1.78646 5.39377 -1.92559 1.34893 6.1696 1 -7.36369 0.0271325 4
401 1 15.1205 0.868673 4.4852 7.00055 -1.37837 -1.11167 1 -7.38143 0.0324554 4
402 1 15.181 2.69924 6.26732 1.68731 -3.51506 -1.5584 1 -7.25821 0.0109741 4
403 1 16.9116 0.95793 6.2596 5.52974 7.07941 -0.907421 1 -7.26058 0.0507398 4
404 1 16.9547 2.6242 4.50961 -3.0925 3.24011 4.4067 1 -7.28526 0.024574 4
405 1 16.052 3.58414 5.3648 -2.37723 -4.15345 5.8459 1 -7.29689 0.0355262 4
406 1 13.3417 2.67736 8.01577 2.77206 3.59711 -6.47205 1 -7.30217 0.0389085 4
407 1 16.0171 1.8186 7.14997 -1.38217 13.7936 4.30516 1 -7.40499 0.13115 4
408 1 15.1375 0.9055 8.06258 0.745907 1.18032 -0.272205 1 -7.30103 0.00125956 4
409 1 16.8833 2.6654 8.05042 5.02247 -9.4262 5.40693 1 -7.29354 0.089202 4
410 1 14.1642 3.56814 7.14237 -2.34304 4.09064 -4.50141 1 -7.31845 0.0264443 4
694 1 16.0311 0.0173642 5.34754 2.12573 0.725839 2.10256 1 -7.3507 0.00589209 4
412 1 17.8416 1.79 5.41121 2.90753 -0.768695 8.71889 1 -7.33657 0.0529458 4
413 1 18.7169 0.88979 4.53708 0.581326 -5.73746 1.63844 1 -7.40163 0.0223706 4
414 1 18.7362 2.71109 6.28998 3.47831 5.38628 -4.06251 1 -7.39952 0.0358608 4
415 1 20.4871 0.893323 6.26499 4.38402 -4.00085 -0.62902 1 -7.32353 0.0221721 4
416 1 20.5231 2.66524 4.5003 -7.38592 -0.831436 4.16044 1 -7.32754 0.0451585 4
417 1 19.637 3.58398 5.38557 -0.943501 5.77058 -3.44672 1 -7.35602 0.028675 4
418 1 19.6175 1.8164 7.17091 1.43074 5.85891 5.72261 1 -7.34337 0.0430234 4
419 1 18.7005 0.883601 8.04281 -1.31711 -4.08356 5.57345 1 -7.32687 0.0307936 4
420 1 20.5072 2.66569 8.06393 4.05853 1.09055 2.97827 1 -7.39757 0.0165136 4
421 1 17.8214 3.59679 7.15117 -2.72054 0.540632 -1.75266 1 -7.32141 0.0067007 4
709 1 17.8621 0.00174423 7.14037 -13.3617 2.3221 -1.7163 1 -7.32192 0.116314 4
422 1 19.5705 0.0123459 5.382 -4.24404 6.48904 -0.898992 1 -7.33307 0.037923 4
423 1 0.913691 4.46428 4.46318 5.4652 5.14655 -2.79211 1 -7.35891 0.0399295 4
424 1 0.925835 6.2575 6.22405 -7.25701 3.1299 9.9694 1 -7.36094 0.100739 4
425 1 2.6518 4.45988 6.25641 4.96552 3.03216 5.38133 1 -7.34548 0.039094 4
426 1 2.7023 6.29509 4.44271 -6.28293 4.7252 11.3348 1 -7.31452 0.118435 4
427 1 3.57132 5.37153 5.33695 -6.15585 -2.09501 0.0979467 1 -7.24125 0.0263243 4
428 1 1.79715 7.19483 5.38704 0.588649 -3.39298 -1.19012 1 -7.35143 0.00826284 4
429 1 0.889793 8.05429 4.49713 0.64386 3.51881 5.53743 1 -7.36348 0.0270505 4
430 1 2.67834 7.99398 6.22662 -0.128651 3.66787 -4.04236 1 -7.33427 0.0185548 4
431 1 1.82938 5.36619 7.13087 -1.8743 1.97063 5.37453 1 -7.37212 0.0225828 4