ITEM: TIMESTEP
49125350
ITEM: NUMBER OF ATOMS
3060
ITEM: BOX BOUNDS pp pp mm
0.0000000000000000e+00 2.1394294200000001e+01
0.0000000000000000e+00 2.1394294200000001e+01
-5.3491084073550004e-03 5.3485735499999997e+01
ITEM: ATOMS id type x y z vx vy vz c_clusts c_atom_pe c_atom_ke c_atom_coord
1 1 0 0 0 0 0 0 1 -3.33922 0 2
2 1 1.78286 1.78286 0 0 0 0 1 -3.34651 0 2
3 1 0.891429 0.891429 0.891429 0 0 0 1 -7.02028 0 4
4 1 0.921734 2.64565 2.6972 3.5467 4.60292 -0.995473 1 -7.3394 0.0216336 4
5 1 2.71047 0.912399 2.7518 6.91055 5.60959 -1.25591 1 -7.22289 0.0502923 4
6 1 2.67429 2.67429 0.891429 0 0 0 1 -6.99268 0 4
7 1 3.56572 0 0 0 0 0 1 -3.33956 0 2
8 1 3.60381 1.82255 1.7932 1.39549 3.20057 7.61276 1 -7.30497 0.0436602 4
9 1 0 3.56572 0 0 0 0 1 -3.35073 0 2
10 1 1.79627 3.61025 1.76483 4.34964 2.02508 -0.388923 1 -7.26572 0.0144226 4
11 1 3.56572 3.56572 0 0 0 0 1 -3.32174 0 2
12 1 1.76101 1.77044 3.60542 -0.667298 2.98514 -8.31297 1 -7.37103 0.0488367 4
13 1 3.53386 3.53198 3.57087 4.25902 -5.42946 -0.973362 1 -7.2796 0.0302286 4
292 1 1.79587 0.00968006 1.77892 5.33631 -0.933388 -3.27153 1 -7.27293 0.0249284 4
56 1 0.0483122 3.56553 3.59717 -9.04941 2.18195 -1.68751 1 -7.29427 0.0557074 4
55 1 0.0158435 1.79031 1.78579 4.823 2.84048 -2.73938 1 -7.34551 0.0241712 4
14 1 5.34857 1.78286 0 0 0 0 1 -3.3319 0 2
15 1 4.45714 0.891429 0.891429 0 0 0 1 -6.9822 0 4
16 1 4.48147 2.74221 2.63749 4.57828 6.84398 1.20182 1 -7.30452 0.0431 4
17 1 6.25425 0.905895 2.62988 8.6918 -2.67946 -6.48389 1 -7.23193 0.0776587 4
18 1 6.24 2.67429 0.891429 0 0 0 1 -7.0313 0 4
19 1 7.13143 0 0 0 0 0 1 -3.35339 0 2
20 1 7.15501 1.7666 1.74996 -4.38882 -1.50078 2.95033 1 -7.37899 0.0188088 4
21 1 8.02286 0.891429 0.891429 0 0 0 1 -7.02595 0 4
22 1 8.07271 2.68314 2.64934 -2.61871 -8.75179 -0.208648 1 -7.31857 0.0519694 4
23 1 5.36592 3.58406 1.75371 1.52782 3.24672 -3.87975 1 -7.39192 0.017383 4
24 1 7.13143 3.56572 0 0 0 0 1 -3.30288 0 2
25 1 5.3538 1.82197 3.57064 -3.51026 -5.62001 7.19743 1 -7.34411 0.0595721 4
26 1 7.13889 3.55185 3.58981 -7.02885 -2.96448 -5.84953 1 -7.26772 0.0575184 4
28 1 8.91429 1.78286 0 0 0 0 1 -3.30995 0 2
29 1 9.82687 0.91159 2.65857 -4.7997 -0.0483493 4.87447 1 -7.36694 0.0291295 4
30 1 9.80572 2.67429 0.891429 0 0 0 1 -7.02899 0 4
31 1 10.6971 0 0 0 0 0 1 -3.32136 0 2
32 1 10.7189 1.80707 1.76221 4.70237 -3.1386 -0.601316 1 -7.34368 0.0201197 4
33 1 12.48 1.78286 0 0 0 0 1 -3.32959 0 2
34 1 11.5886 0.891429 0.891429 0 0 0 1 -6.98831 0 4
35 1 11.6299 2.65552 2.70145 -6.12672 -3.81827 -1.49937 1 -7.29907 0.0338376 4
36 1 8.89347 3.57102 1.77056 -7.28685 1.83676 -1.70079 1 -7.38447 0.0369501 4
37 1 10.6971 3.56572 0 0 0 0 1 -3.31443 0 2
38 1 12.4895 3.56039 1.77609 -1.39587 -4.64007 -8.11635 1 -7.31083 0.0556162 4
39 1 8.93467 1.77235 3.55536 1.40269 -4.80082 -5.53876 1 -7.41763 0.034665 4
40 1 12.5277 1.73246 3.61261 -4.51162 1.6334 3.66564 1 -7.30868 0.0226935 4
41 1 10.7323 3.57167 3.55264 -5.10911 -1.38853 -0.504782 1 -7.32131 0.0176058 4
320 1 8.95804 0.0345427 1.74139 2.63441 -6.73933 -2.75257 1 -7.36805 0.0373054 4
319 1 10.7002 0.0225064 3.55488 3.66025 3.76199 1.14916 1 -7.30427 0.0179698 4
42 1 13.3777 0.920917 2.70851 -1.90287 -0.0577689 -4.00319 1 -7.3494 0.0122305 4
43 1 13.3714 2.67429 0.891429 0 0 0 1 -6.99513 0 4
44 1 14.2629 0 0 0 0 0 1 -3.33531 0 2
45 1 14.2963 1.80795 1.8031 1.66798 8.46088 2.35926 1 -7.34965 0.0497535 4
46 1 16.0457 1.78286 0 0 0 0 1 -3.31888 0 2
47 1 15.1543 0.891429 0.891429 0 0 0 1 -7.03657 0 4
48 1 15.1561 2.68777 2.66348 -0.844744 4.84938 -5.16452 1 -7.30513 0.0316829 4
49 1 16.9914 0.885383 2.6712 -4.34873 5.46517 -2.42208 1 -7.28829 0.0340131 4
50 1 16.9371 2.67429 0.891429 0 0 0 1 -7.02472 0 4
51 1 14.2629 3.56572 0 0 0 0 1 -3.32214 0 2
52 1 16.0342 3.56459 1.76982 -6.86268 5.46776 -1.92617 1 -7.37511 0.0502317 4
53 1 16.1291 1.79372 3.58219 1.98203 5.00727 0.845825 1 -7.26545 0.0184964 4
54 1 14.2481 3.53003 3.59915 -6.30991 -2.93231 0.688462 1 -7.351 0.0304288 4
336 1 14.3041 0.0481992 3.58798 -0.321038 2.08968 4.30047 1 -7.27406 0.0142933 4
350 1 21.3863 0.0174835 3.66898 2.95688 -0.0370457 -5.2519 1 -7.36415 0.0226109 4
57 1 17.8286 0 0 0 0 0 1 -3.33539 0 2
58 1 17.8433 1.77111 1.7846 -0.951381 -2.42186 -0.447458 1 -7.38367 0.00433879 4
59 1 19.6114 1.78286 0 0 0 0 1 -3.326 0 2
60 1 18.72 0.891429 0.891429 0 0 0 1 -7.03231 0 4
61 1 18.7081 2.65089 2.66619 -11.817 1.0716 -0.634354 1 -7.35052 0.087882 4
62 1 20.5246 0.879776 2.72244 -2.51312 -0.743312 -2.75544 1 -7.30252 0.00900075 4
63 1 20.5029 2.67429 0.891429 0 0 0 1 -7.01727 0 4
64 1 17.8286 3.56572 0 0 0 0 1 -3.3314 0 2
65 1 19.5835 3.57598 1.78305 -5.06021 2.02353 -3.05333 1 -7.34542 0.0242891 4
66 1 19.6287 1.78369 3.57675 3.67532 6.43883 -5.56393 1 -7.33525 0.0534813 4
67 1 17.7842 3.5819 3.55596 -3.02808 2.52898 -4.02759 1 -7.32684 0.0197848 4
68 1 19.6238 0.0193087 1.76133 -2.20862 2.27498 -2.1201 1 -7.34755 0.00905528 4
69 1 1.78286 5.34857 0 0 0 0 1 -3.32353 0 2
70 1 0.891429 4.45714 0.891429 0 0 0 1 -7.00455 0 4
71 1 0.928227 6.31827 2.74527 -0.630347 -1.44472 -7.32944 1 -7.30896 0.0349837 4
72 1 2.6853 4.54819 2.67509 -3.50888 1.31385 -3.90145 1 -7.23836 0.018212 4
73 1 2.67429 6.24 0.891429 0 0 0 1 -7.0072 0 4
74 1 3.61634 5.37941 1.76279 -5.05785 -3.5517 1.3629 1 -7.34185 0.0249306 4
75 1 0 7.13143 0 0 0 0 1 -3.33839 0 2
76 1 1.77663 7.12433 1.79974 -0.0500334 -1.37141 4.43489 1 -7.33587 0.0134142 4
77 1 0.891429 8.02286 0.891429 0 0 0 1 -7.03157 0 4
78 1 2.68643 8.02958 2.68647 -5.17605 -8.7063 3.79559 1 -7.32851 0.0728224 4
79 1 3.56572 7.13143 0 0 0 0 1 -3.315 0 2
80 1 1.79008 5.42559 3.57385 -3.41335 0.145766 -2.53692 1 -7.36576 0.011271 4
81 1 3.56173 7.15344 3.60264 -0.382043 -1.52942 -6.62582 1 -7.33334 0.0288722 4
128 1 0.00995201 5.39506 1.80639 0.09237 -3.15332 -5.12096 1 -7.25203 0.022517 4
83 1 5.34857 5.34857 0 0 0 0 1 -3.29947 0 2
84 1 4.45714 4.45714 0.891429 0 0 0 1 -7.05798 0 4
85 1 4.46006 6.2555 2.69004 -1.50837 7.9738 4.6196 1 -7.31207 0.054274 4
86 1 6.2112 4.42839 2.70134 3.06987 0.296208 4.39415 1 -7.33688 0.0179385 4
87 1 6.24 6.24 0.891429 0 0 0 1 -7.02624 0 4
88 1 7.10583 5.31877 1.77908 -1.79942 -2.68093 4.08685 1 -7.32206 0.0168849 4
89 1 8.02286 4.45714 0.891429 0 0 0 1 -7.03237 0 4
90 1 8.01244 6.20186 2.69224 1.69368 7.46392 -17.1468 1 -7.32565 0.219462 4
91 1 5.36468 7.13545 1.77641 -4.99328 -2.2943 -0.750284 1 -7.35054 0.0191456 4
92 1 4.45714 8.02286 0.891429 0 0 0 1 -7.0109 0 4
93 1 6.28652 8.05042 2.63825 14.6915 -0.869621 1.28617 1 -7.32858 0.135844 4
94 1 7.13143 7.13143 0 0 0 0 1 -3.33447 0 2
95 1 8.02286 8.02286 0.891429 0 0 0 1 -7.01008 0 4
96 1 5.33961 5.33195 3.56749 3.16466 -4.07402 8.93057 1 -7.34874 0.0662061 4
97 1 7.14037 7.10021 3.58276 -3.8134 3.89368 2.88392 1 -7.31372 0.0236645 4
98 1 8.91429 5.34857 0 0 0 0 1 -3.32609 0 2
99 1 9.78161 4.47755 2.67127 7.19908 0.419743 -0.713238 1 -7.3536 0.0326846 4
100 1 9.80572 6.24 0.891429 0 0 0 1 -6.98009 0 4
101 1 10.6725 5.35881 1.75901 5.42949 4.57282 1.82983 1 -7.34579 0.0334481 4
102 1 12.48 5.34857 0 0 0 0 1 -3.32021 0 2
103 1 11.5886 4.45714 0.891429 0 0 0 1 -7.02808 0 4
104 1 11.5959 6.22398 2.65128 -2.16357 -1.56677 3.25768 1 -7.35901 0.011047 4
105 1 8.84867 7.10905 1.79948 -2.74533 3.35274 -2.58194 1 -7.32067 0.0158371 4
106 1 9.80108 7.98669 2.67228 -5.25713 -1.19011 -1.69425 1 -7.31792 0.0198705 4
107 1 10.6971 7.13143 0 0 0 0 1 -3.33753 0 2
108 1 12.4747 7.13133 1.74103 -1.17374 9.1809 -5.36982 1 -7.37547 0.0712688 4
109 1 11.5886 8.02286 0.891429 0 0 0 1 -7.02558 0 4
110 1 8.94127 5.34182 3.60184 -1.25612 0.466989 -3.71369 1 -7.37803 0.00970203 4
111 1 12.498 5.3483 3.54916 7.57113 -6.49703 -3.15469 1 -7.31925 0.0681466 4
112 1 10.6965 7.08672 3.56239 -1.27715 -5.12652 -2.27378 1 -7.33601 0.0205914 4
113 1 13.4003 4.44753 2.69652 -5.86227 12.6202 -0.53601 1 -7.28515 0.120703 4
114 1 13.3714 6.24 0.891429 0 0 0 1 -7.03888 0 4
115 1 14.2838 5.34256 1.7503 9.36118 -7.45311 4.1618 1 -7.34213 0.0999 4
116 1 16.0457 5.34857 0 0 0 0 1 -3.33849 0 2
117 1 15.1543 4.45714 0.891429 0 0 0 1 -7.03583 0 4
118 1 15.1916 6.19761 2.70057 -4.68267 -6.02735 3.16653 1 -7.30179 0.0425013 4
119 1 16.9269 4.44266 2.6925 -0.640174 -2.01706 1.58187 1 -7.34134 0.00434495 4
120 1 16.9371 6.24 0.891429 0 0 0 1 -7.02345 0 4
121 1 13.3726 8.02338 2.6174 0.16262 -5.17706 -4.97435 1 -7.26721 0.0321001 4
122 1 14.2629 7.13143 0 0 0 0 1 -3.32635 0 2
123 1 16.0771 7.14851 1.75193 2.7212 -4.50528 -4.58589 1 -7.33584 0.0303326 4
124 1 15.1543 8.02286 0.891429 0 0 0 1 -7.03072 0 4
125 1 16.9285 7.99681 2.61779 4.15892 -1.11408 0.80269 1 -7.26809 0.0119394 4
126 1 16.0449 5.33956 3.58356 11.9902 2.05958 -8.01505 1 -7.38217 0.132109 4
127 1 14.312 7.08516 3.57097 1.28754 -2.41233 -4.73038 1 -7.2502 0.0185817 4
82 1 21.3759 7.16439 3.60882 5.44612 -0.000794083 -1.31093 1 -7.36344 0.019531 4
129 1 17.8193 5.36054 1.78592 0.489563 4.46529 -0.871668 1 -7.3522 0.0130326 4
130 1 19.6114 5.34857 0 0 0 0 1 -3.33757 0 2
131 1 18.72 4.45714 0.891429 0 0 0 1 -7.02064 0 4
132 1 18.7167 6.2336 2.69314 -2.20623 0.64163 4.16015 1 -7.32354 0.0140581 4
133 1 20.4985 4.47843 2.70702 2.34346 3.37094 4.10523 1 -7.2919 0.0209807 4
134 1 20.5029 6.24 0.891429 0 0 0 1 -6.99038 0 4
135 1 17.8286 7.13143 0 0 0 0 1 -3.31032 0 2
136 1 19.5607 7.11711 1.7808 -1.79438 -4.98645 5.44984 1 -7.33466 0.0359671 4
137 1 18.72 8.02286 0.891429 0 0 0 1 -7.02897 0 4
138 1 20.5043 8.00459 2.68725 5.8066 -1.61219 4.59269 1 -7.3143 0.0357326 4
139 1 19.629 5.37846 3.60366 1.12441 3.10388 -7.17617 1 -7.40485 0.0388368 4
140 1 17.8255 7.1396 3.57349 -4.04254 0.746007 -4.68394 1 -7.34313 0.0241737 4
141 1 1.78286 8.91429 0 0 0 0 1 -3.33978 0 2
142 1 0.899638 9.76706 2.70988 -2.65287 3.48012 1.43493 1 -7.31644 0.0132004 4
143 1 2.67429 9.80572 0.891429 0 0 0 1 -7.05625 0 4
144 1 3.54667 8.92217 1.76241 3.34891 -4.36435 3.02049 1 -7.37215 0.024515 4
145 1 0 10.6971 0 0 0 0 1 -3.3334 0 2
146 1 1.79736 10.6949 1.76422 4.57553 -0.524095 -7.99915 1 -7.28697 0.0530286 4
147 1 1.78286 12.48 0 0 0 0 1 -3.31495 0 2
148 1 0.891429 11.5886 0.891429 0 0 0 1 -7.03243 0 4
149 1 2.69581 11.5895 2.70293 14.3 0.630733 -0.460621 1 -7.36285 0.12766 4
150 1 3.56572 10.6971 0 0 0 0 1 -3.3224 0 2
151 1 3.53263 12.5003 1.79282 -0.906681 0.994005 -0.0291781 1 -7.2719 0.00112719 4
152 1 1.81617 8.90897 3.58664 -11.5755 -4.6476 -3.94193 1 -7.38264 0.106516 4
153 1 1.75039 12.4797 3.5434 1.96478 0.417582 -8.14644 1 -7.28104 0.0438183 4
154 1 3.57825 10.6899 3.59446 2.91637 0.179914 9.47674 1 -7.39076 0.0612133 4
205 1 0.021523 8.88733 1.77539 7.79864 -5.71945 -1.6322 1 -7.32763 0.0598743 4
204 1 0.0274687 12.5029 1.75508 12.8013 -1.76385 -1.01066 1 -7.35608 0.104571 4
155 1 5.34857 8.91429 0 0 0 0 1 -3.33546 0 2
156 1 4.44303 9.77668 2.71015 0.468773 -2.73048 -0.321114 1 -7.31817 0.00484146 4
157 1 6.24 9.80572 0.891429 0 0 0 1 -7.02056 0 4
158 1 7.1473 8.93101 1.79605 3.76603 2.92995 7.10539 1 -7.35728 0.0455953 4
159 1 8.06384 9.82032 2.69146 6.76073 3.6268 -3.3337 1 -7.24982 0.0435541 4
160 1 5.36465 10.6572 1.79996 -0.0576551 0.329395 -5.27294 1 -7.29678 0.0173755 4
161 1 5.34857 12.48 0 0 0 0 1 -3.35493 0 2
162 1 4.45714 11.5886 0.891429 0 0 0 1 -6.94598 0 4
163 1 6.26176 11.5985 2.6583 3.22917 -1.35707 -5.71862 1 -7.28688 0.0279916 4
164 1 7.13143 10.6971 0 0 0 0 1 -3.35171 0 2
165 1 7.15223 12.4952 1.79409 5.32707 4.23422 -2.81565 1 -7.38797 0.0337568 4
166 1 8.02286 11.5886 0.891429 0 0 0 1 -7.04673 0 4
167 1 5.40139 8.88705 3.56688 2.7383 8.47038 0.787945 1 -7.36572 0.049711 4
168 1 5.30544 12.4708 3.58921 6.5174 -3.37594 -4.78286 1 -7.26339 0.0477708 4
169 1 7.1447 10.7288 3.63429 -5.76685 -1.60481 1.79964 1 -7.26958 0.0243186 4
170 1 8.91429 8.91429 0 0 0 0 1 -3.33397 0 2
171 1 9.80572 9.80572 0.891429 0 0 0 1 -6.95807 0 4
172 1 10.6801 8.88018 1.79734 4.77614 -6.82233 3.78111 1 -7.38839 0.0520675 4
173 1 12.48 8.91429 0 0 0 0 1 -3.33381 0 2
174 1 11.5558 9.79201 2.68641 -3.16518 -3.16706 -6.43983 1 -7.40158 0.0382917 4
175 1 8.86916 10.7388 1.78173 -4.07851 -1.94089 0.444696 1 -7.2643 0.0128214 4
176 1 8.91429 12.48 0 0 0 0 1 -3.34204 0 2
177 1 9.79129 11.6039 2.73612 -6.07078 1.24497 2.53321 1 -7.22104 0.0278981 4
178 1 10.6971 10.6971 0 0 0 0 1 -3.3318 0 2
179 1 10.6924 12.5098 1.76792 -2.62568 2.86968 -4.12108 1 -7.31308 0.0199877 4
180 1 12.4501 10.6844 1.77524 -2.79783 3.11546 1.77322 1 -7.3864 0.0128707 4
181 1 12.48 12.48 0 0 0 0 1 -3.32373 0 2
182 1 11.5886 11.5886 0.891429 0 0 0 1 -7.03947 0 4
183 1 8.93901 8.89472 3.6224 -2.18812 4.10801 -4.99622 1 -7.31736 0.0290211 4
184 1 12.4563 8.92469 3.55102 -6.54644 -3.89215 -10.0127 1 -7.33533 0.0985046 4
185 1 8.87388 12.4982 3.59927 -2.85767 -2.48855 7.01192 1 -7.32739 0.0395404 4
186 1 10.6902 10.6395 3.58764 -3.16232 4.94392 3.06273 1 -7.40487 0.0272765 4
187 1 12.4762 12.4479 3.56375 6.81386 -8.35319 2.14543 1 -7.31336 0.0751937 4
188 1 13.3714 9.80572 0.891429 0 0 0 1 -6.9964 0 4
189 1 14.2672 8.92825 1.7673 -2.72864 -9.19429 3.38756 1 -7.37803 0.0643937 4
190 1 16.0457 8.91429 0 0 0 0 1 -3.32754 0 2
191 1 15.1697 9.8584 2.64942 4.04195 -1.78437 2.84767 1 -7.27944 0.017198 4
192 1 16.9371 9.80572 0.891429 0 0 0 1 -7.01133 0 4
193 1 13.3564 11.5315 2.66025 4.42351 -1.80299 -0.524557 1 -7.28842 0.0143739 4
194 1 14.2629 10.6971 0 0 0 0 1 -3.33827 0 2
195 1 14.2297 12.4669 1.75993 3.30408 3.86807 9.74248 1 -7.33774 0.0751859 4
196 1 16.0869 10.7554 1.77152 -5.5796 0.720846 -2.89725 1 -7.36518 0.0249254 4
197 1 16.0457 12.48 0 0 0 0 1 -3.3271 0 2
198 1 15.1543 11.5886 0.891429 0 0 0 1 -6.98824 0 4
199 1 16.9551 11.6152 2.66624 -1.17931 2.04056 1.23534 1 -7.35277 0.00440723 4
200 1 16.065 8.93653 3.58414 1.1333 3.92035 6.46644 1 -7.25218 0.0363922 4
201 1 14.2987 10.6646 3.59078 -1.66423 3.89743 6.96128 1 -7.29897 0.0413409 4
202 1 16.0338 12.4916 3.52438 -6.2922 7.3968 0.277392 1 -7.30952 0.0587455 4
203 1 21.3721 10.6719 3.54413 0.212924 -0.697289 -2.93356 1 -7.32839 0.00568729 4
206 1 17.8317 8.92936 1.73993 -4.7729 -0.987971 6.85715 1 -7.33006 0.0440536 4
207 1 19.6114 8.91429 0 0 0 0 1 -3.322 0 2
208 1 18.7225 9.82085 2.63788 10.16 6.73631 -6.30601 1 -7.33156 0.117246 4
209 1 20.5029 9.80572 0.891429 0 0 0 1 -7.00572 0 4
210 1 17.8286 10.6971 0 0 0 0 1 -3.30711 0 2
211 1 17.8747 12.5234 1.74288 -2.603 -5.27748 4.78241 1 -7.31985 0.0357888 4
212 1 19.5909 10.6972 1.73795 -2.9795 2.73912 6.98205 1 -7.38046 0.0405381 4
213 1 19.6114 12.48 0 0 0 0 1 -3.32951 0 2
214 1 18.72 11.5886 0.891429 0 0 0 1 -7.02943 0 4
215 1 20.4911 11.574 2.60986 4.47456 -0.601826 -2.74102 1 -7.30551 0.0173639 4
216 1 19.6476 8.9338 3.51998 0.490836 5.11985 1.33513 1 -7.33238 0.0175751 4
217 1 17.79 10.7466 3.53471 0.336163 -0.956773 2.39852 1 -7.34394 0.00422088 4
218 1 19.6458 12.4941 3.54258 3.81063 0.129302 -5.48475 1 -7.29608 0.0277728 4
219 1 0.876413 13.375 2.65337 2.3591 -1.93616 0.877962 1 -7.38595 0.00627711 4
220 1 2.67429 13.3714 0.891429 0 0 0 1 -7.04473 0 4
221 1 0 14.2629 0 0 0 0 1 -3.29202 0 2
222 1 1.78312 14.256 1.76239 4.47322 -4.05146 -1.2974 1 -7.35903 0.0237189 4
223 1 1.78286 16.0457 0 0 0 0 1 -3.32475 0 2
224 1 0.891429 15.1543 0.891429 0 0 0 1 -7.0427 0 4
225 1 0.870747 16.9355 2.67564 2.42132 6.06663 -2.95204 1 -7.35746 0.0319811 4
226 1 2.66526 15.1454 2.67756 -0.972045 4.31769 -6.46287 1 -7.36772 0.0381896 4
227 1 2.67429 16.9371 0.891429 0 0 0 1 -7.0073 0 4
228 1 3.56572 14.2629 0 0 0 0 1 -3.34656 0 2
229 1 3.58251 16.0451 1.77351 4.75156 3.05044 8.58224 1 -7.36433 0.0656893 4
230 1 1.78646 16.0683 3.55139 -3.0551 8.15974 0.903853 1 -7.39266 0.04776 4
231 1 3.5297 14.3109 3.56747 0.295355 6.55892 -3.57928 1 -7.33523 0.0348048 4
233 1 0.00165081 16.0259 1.74474 5.61077 3.34795 0.886365 1 -7.33358 0.0270601 4
232 1 0.0125068 14.3 3.53704 0.832932 1.5812 2.28162 1 -7.36792 0.00522824 4
234 1 4.47567 13.4338 2.70242 1.83306 -3.49107 -3.78613 1 -7.2591 0.0185996 4
235 1 6.24 13.3714 0.891429 0 0 0 1 -7.04879 0 4
236 1 8.02409 13.3806 2.69583 8.62783 -2.75499 -4.43145 1 -7.38721 0.0632803 4
237 1 5.39958 14.2581 1.77301 -4.99697 -3.21143 3.62995 1 -7.36479 0.0301625 4
238 1 5.34857 16.0457 0 0 0 0 1 -3.31932 0 2
239 1 4.45714 15.1543 0.891429 0 0 0 1 -6.98808 0 4
240 1 4.46589 16.9165 2.65331 -2.52105 -1.73382 6.21345 1 -7.3156 0.029857 4
241 1 6.24336 15.1776 2.68237 -0.766882 0.857205 -10.0828 1 -7.29138 0.0641012 4
242 1 6.24 16.9371 0.891429 0 0 0 1 -6.99677 0 4
243 1 7.13143 14.2629 0 0 0 0 1 -3.34012 0 2
244 1 7.16505 16.0617 1.78069 -3.33229 1.47376 -4.0419 1 -7.32681 0.018432 4
245 1 8.02286 15.1543 0.891429 0 0 0 1 -7.04253 0 4
246 1 8.04124 16.9633 2.6493 -4.79972 0.774143 -1.97774 1 -7.37662 0.0171467 4
247 1 5.36209 16.0859 3.56648 -10.665 -6.90915 3.50253 1 -7.40337 0.108144 4
248 1 7.15846 14.2596 3.61747 3.28209 1.67403 -4.07669 1 -7.26655 0.0187935 4
249 1 9.80572 13.3714 0.891429 0 0 0 1 -7.01302 0 4
250 1 11.5724 13.3795 2.67834 -0.138024 6.24672 -6.8238 1 -7.3115 0.0532827 4
251 1 8.90117 14.303 1.78692 6.59795 4.67753 4.02614 1 -7.32363 0.0508037 4
252 1 8.91429 16.0457 0 0 0 0 1 -3.32602 0 2
253 1 9.79117 15.1639 2.69775 9.60031 4.25058 -6.77994 1 -7.32355 0.0972236 4
254 1 9.80572 16.9371 0.891429 0 0 0 1 -7.02681 0 4
255 1 10.6971 14.2629 0 0 0 0 1 -3.3294 0 2
256 1 10.6919 16.06 1.78142 -9.40072 -0.691429 -2.14305 1 -7.38537 0.0581622 4
257 1 12.4695 14.3012 1.77241 -0.125521 1.38086 5.47583 1 -7.35991 0.0198599 4
258 1 12.48 16.0457 0 0 0 0 1 -3.32208 0 2
259 1 11.5886 15.1543 0.891429 0 0 0 1 -7.04772 0 4
260 1 11.533 16.9183 2.65656 2.90148 1.40993 -1.84416 1 -7.26997 0.00859412 4
261 1 8.87532 16.0358 3.56218 13.2662 4.30433 10.1101 1 -7.33371 0.184694 4
262 1 10.6639 14.2265 3.60846 11.1674 3.16514 -0.625158 1 -7.36022 0.0841016 4
263 1 12.5281 16.0264 3.54534 3.45134 -5.77782 5.98374 1 -7.2558 0.0504788 4
264 1 13.3714 13.3714 0.891429 0 0 0 1 -7.00308 0 4
265 1 15.1525 13.3682 2.66252 5.13675 -4.4789 -5.74741 1 -7.35933 0.0494701 4
266 1 16.9371 13.3714 0.891429 0 0 0 1 -7.01962 0 4
267 1 13.3714 15.1059 2.64041 -8.20796 1.84437 3.45067 1 -7.3442 0.0514618 4
268 1 13.3714 16.9371 0.891429 0 0 0 1 -7.04077 0 4
269 1 14.2629 14.2629 0 0 0 0 1 -3.32433 0 2
270 1 14.2694 16.0294 1.744 -6.58993 -0.471916 4.91282 1 -7.29262 0.0421916 4
271 1 16.0412 14.2593 1.7775 6.72704 3.39102 -3.39037 1 -7.37814 0.0424785 4
272 1 16.0457 16.0457 0 0 0 0 1 -3.34048 0 2
273 1 15.1543 15.1543 0.891429 0 0 0 1 -7.02304 0 4
274 1 15.1489 16.938 2.71737 1.00101 2.50868 -6.87647 1 -7.23376 0.0339728 4
275 1 16.8981 15.1641 2.68135 5.40089 -8.24123 -4.49614 1 -7.39363 0.0730122 4
276 1 16.9371 16.9371 0.891429 0 0 0 1 -7.04363 0 4
277 1 14.2843 14.2386 3.52791 -2.25623 4.0036 7.05239 1 -7.36276 0.0441024 4
278 1 16.043 16.0209 3.55907 5.90243 -4.10246 1.04813 1 -7.34583 0.0328438 4
279 1 18.7536 13.4271 2.64742 0.676307 2.85301 5.76236 1 -7.32981 0.0260186 4
280 1 20.5029 13.3714 0.891429 0 0 0 1 -6.99151 0 4
281 1 17.8286 14.2629 0 0 0 0 1 -3.3189 0 2
282 1 17.7939 16.059 1.77846 6.4824 6.64754 3.22445 1 -7.3492 0.0601316 4
283 1 19.6495 14.3119 1.7761 -4.65329 5.32821 1.33204 1 -7.34052 0.0322524 4
284 1 19.6114 16.0457 0 0 0 0 1 -3.30175 0 2
285 1 18.72 15.1543 0.891429 0 0 0 1 -6.99416 0 4
286 1 18.7027 16.9693 2.63998 2.91775 -8.54077 -2.54519 1 -7.35973 0.0547337 4
287 1 20.5561 15.1938 2.64109 -5.00948 -7.91538 -4.06098 1 -7.28656 0.0648816 4
288 1 20.5029 16.9371 0.891429 0 0 0 1 -7.04339 0 4
289 1 17.8125 14.2669 3.54236 2.02235 -2.66187 -2.16727 1 -7.33175 0.00987943 4
290 1 19.575 16.1026 3.55145 0.193645 3.0224 -1.35733 1 -7.28107 0.00685584 4
291 1 3.60725 21.3994 3.6483 -3.47987 7.78618 -2.27099 1 -7.3131 0.0484817 4
293 1 0 17.8286 0 0 0 0 1 -3.3276 0 2
294 1 1.75191 17.8243 1.77787 -1.0328 5.16645 -4.70753 1 -7.37083 0.0310713 4
295 1 1.78286 19.6114 0 0 0 0 1 -3.33875 0 2
296 1 0.891429 18.72 0.891429 0 0 0 1 -7.00901 0 4
297 1 0.882504 20.5346 2.72123 -1.14579 6.5018 3.29026 1 -7.24237 0.0338675 4
298 1 2.6558 18.7252 2.64793 -7.02372 -2.63151 -1.65259 1 -7.40312 0.0367161 4
299 1 2.67429 20.5029 0.891429 0 0 0 1 -7.03886 0 4
300 1 3.56572 17.8286 0 0 0 0 1 -3.31659 0 2
301 1 3.51312 19.6198 1.76958 0.232294 7.76294 9.44302 1 -7.36626 0.0930451 4
302 1 1.80394 19.6104 3.54912 0.880932 -0.930986 -6.22915 1 -7.32548 0.0251741 4
303 1 3.51693 17.8505 3.56199 -1.31262 4.4756 0.736287 1 -7.33876 0.0138776 4
27 1 5.31181 21.3537 1.79063 0.269079 -4.02693 3.86942 1 -7.32798 0.0194576 4
306 1 7.13012 21.3801 3.58922 2.98072 5.64558 1.06705 1 -7.24949 0.0260771 4
307 1 5.32989 17.8343 1.76462 -6.0357 6.80573 0.376797 1 -7.29286 0.0515927 4
308 1 5.34857 19.6114 0 0 0 0 1 -3.33078 0 2
309 1 4.45714 18.72 0.891429 0 0 0 1 -7.00585 0 4
310 1 4.41798 20.5312 2.68131 3.18632 -5.2464 1.87542 1 -7.34658 0.0256406 4
311 1 6.24303 18.7896 2.70088 5.42201 -1.70928 -3.22986 1 -7.25406 0.0266099 4
312 1 6.24 20.5029 0.891429 0 0 0 1 -7.01437 0 4
313 1 7.13143 17.8286 0 0 0 0 1 -3.32233 0 2
314 1 7.12765 19.6388 1.77985 -0.0349528 -0.0856687 3.78151 1 -7.36401 0.00890591 4
315 1 8.02286 18.72 0.891429 0 0 0 1 -7.00672 0 4
316 1 8.05963 20.5271 2.65693 1.39145 -8.3498 -8.72189 1 -7.26034 0.0919489 4
317 1 5.30126 19.6515 3.59266 -2.33006 -1.40561 -1.21564 1 -7.30506 0.00552883 4
318 1 7.12342 17.8345 3.58163 1.61608 2.36797 0.918883 1 -7.33821 0.00564128 4
321 1 12.5147 21.3728 1.7817 -4.93674 -3.28616 3.82246 1 -7.36719 0.0309853 4
322 1 8.91303 17.8206 1.78173 -9.21787 -2.19103 -3.9482 1 -7.40861 0.0655776 4
323 1 8.91429 19.6114 0 0 0 0 1 -3.33401 0 2
324 1 9.79837 18.7204 2.6592 -2.38496 -5.79049 4.10922 1 -7.32444 0.0349202 4
325 1 9.80572 20.5029 0.891429 0 0 0 1 -7.04484 0 4
326 1 10.6971 17.8286 0 0 0 0 1 -3.32595 0 2
327 1 10.6672 19.622 1.75762 -1.35799 -0.101198 -3.15566 1 -7.31589 0.00735245 4
328 1 12.496 17.8215 1.77561 -2.54215 4.19784 -6.13694 1 -7.32459 0.0384325 4
329 1 12.48 19.6114 0 0 0 0 1 -3.33782 0 2
330 1 11.5886 18.72 0.891429 0 0 0 1 -6.96348 0 4
331 1 11.6356 20.5053 2.66456 9.47885 -3.25491 -0.956706 1 -7.31175 0.0630881 4
332 1 8.9133 19.6549 3.57883 6.65616 -2.04758 -3.21686 1 -7.3098 0.0366268 4
333 1 10.7084 17.8428 3.55902 5.01516 -1.35524 1.51816 1 -7.32238 0.0182329 4
334 1 12.4853 19.5745 3.54407 -2.71805 1.16894 5.59704 1 -7.35132 0.0249475 4
335 1 16.0508 21.3831 1.76161 0.0290455 0.103287 2.72137 1 -7.32379 0.00461675 4
337 1 13.3738 18.7388 2.65774 -1.83847 -8.69206 -3.63872 1 -7.37418 0.0573704 4
338 1 13.3714 20.5029 0.891429 0 0 0 1 -7.04703 0 4
339 1 14.2629 17.8286 0 0 0 0 1 -3.33593 0 2
340 1 14.2768 19.6286 1.76578 -3.73433 -2.25892 -3.88411 1 -7.36329 0.021246 4
341 1 16.0888 17.8329 1.76297 -4.58991 -1.99561 0.829426 1 -7.28144 0.0160198 4
342 1 16.0457 19.6114 0 0 0 0 1 -3.30935 0 2
343 1 15.1543 18.72 0.891429 0 0 0 1 -6.99859 0 4
344 1 15.18 20.4973 2.6967 5.13344 -3.62162 -5.32486 1 -7.32573 0.0422145 4
345 1 16.9127 18.7507 2.67024 -3.18694 -3.90808 -2.85034 1 -7.292 0.020885 4
346 1 16.9371 20.5029 0.891429 0 0 0 1 -7.00688 0 4
347 1 14.2911 17.8609 3.55856 0.260666 2.05304 2.53029 1 -7.35536 0.0066508 4
348 1 16.0684 19.6115 3.5977 -8.26296 -4.87655 -1.87424 1 -7.38246 0.0594852 4
349 1 17.8574 21.3487 3.61042 1.53229 6.01458 -1.36242 1 -7.32894 0.0251331 4
304 1 21.3446 17.8078 3.55276 3.09028 -2.34236 4.66593 1 -7.31375 0.0229099 4
305 1 21.3571 19.6236 1.76759 6.27782 -5.35502 7.54074 1 -7.33715 0.0777721 4
351 1 17.8286 17.8286 0 0 0 0 1 -3.3182 0 2
352 1 17.8327 19.6177 1.76139 3.7696 -0.942892 -4.65392 1 -7.38336 0.0228791 4
353 1 19.6105 17.7805 1.77954 -1.40185 5.43227 2.60775 1 -7.34615 0.0238234 4
354 1 19.6114 19.6114 0 0 0 0 1 -3.33422 0 2
355 1 18.72 18.72 0.891429 0 0 0 1 -6.99539 0 4
356 1 18.7096 20.5202 2.65645 -1.79186 2.1683 -10.5758 1 -7.30426 0.0745421 4
357 1 20.5061 18.7262 2.66292 5.14084 -3.59117 -2.13193 1 -7.32986 0.0273058 4
358 1 20.5029 20.5029 0.891429 0 0 0 1 -7.04316 0 4
359 1 17.8155 17.8291 3.58636 -2.66289 -3.08578 7.33367 1 -7.30312 0.0438161 4
360 1 19.6134 19.6262 3.57438 9.41145 -0.225879 6.02228 1 -7.34824 0.0777375 4
361 1 0.892068 0.885131 4.54922 -1.0838 1.14728 2.34999 1 -7.36587 0.00498768 4
362 1 0.937401 2.67558 6.29214 -10.5389 6.27127 -0.0884711 1 -7.37742 0.0936158 4
363 1 2.70603 0.907564 6.29581 1.77195 -4.10612 3.56519 1 -7.36698 0.02036 4
364 1 2.64744 2.65791 4.47261 3.4087 -7.74678 -1.72193 1 -7.29232 0.0464311 4
365 1 3.5978 1.73614 5.38517 0.13966 1.0673 10.7944 1 -7.26751 0.073246 4
366 1 1.83939 3.53637 5.42779 1.44211 6.90384 1.39026 1 -7.31556 0.0321642 4
367 1 1.82639 1.78407 7.20078 5.05861 0.83838 2.3842 1 -7.34839 0.0199032 4
368 1 0.888342 0.904269 8.0468 3.40026 4.86697 -2.75224 1 -7.38024 0.0266548 4
369 1 2.74048 2.70761 8.08832 -1.42156 -9.44278 6.50388 1 -7.29976 0.083086 4
370 1 3.61457 3.60073 7.16814 -2.25385 1.73218 9.76221 1 -7.25532 0.0643471 4
411 1 0.00776627 1.81117 5.41227 -2.54207 -4.13557 -1.08493 1 -7.38196 0.0154002 4
371 1 0.0520733 3.61802 7.1449 2.16452 1.52354 1.23397 1 -7.32736 0.00530866 4
651 1 3.6184 0.0157553 7.15135 -0.763372 2.38623 -3.52522 1 -7.28388 0.0116418 4
710 1 0.0391749 0.00835553 7.17404 2.39427 5.59616 11.977 1 -7.37286 0.112346 4
372 1 4.50247 0.920151 4.44096 6.50654 -9.62479 -2.02481 1 -7.36903 0.0865618 4
373 1 4.49565 2.66511 6.22453 8.18132 -2.53769 1.75041 1 -7.26199 0.0475769 4
374 1 6.28909 0.882974 6.27405 -5.37047 -3.28474 -1.06039 1 -7.32053 0.0253676 4
375 1 6.25011 2.66615 4.45311 4.15069 -0.533226 -2.57316 1 -7.40368 0.0150215 4
376 1 7.11779 1.77031 5.3198 0.980457 0.760928 0.292069 1 -7.27586 0.00101182 4
377 1 8.07235 0.900375 4.41916 6.38005 2.6176 4.99421 1 -7.3391 0.0451253 4
378 1 8.05662 2.66611 6.27395 2.72329 -0.625428 -0.0719634 1 -7.25023 0.0048628 4
379 1 5.35053 3.5804 5.34006 -2.93433 -4.94456 -1.7749 1 -7.35063 0.0225376 4
380 1 5.36577 1.77752 7.16391 5.95577 -4.22363 -0.731143 1 -7.32839 0.0335144 4
381 1 4.46736 0.900689 8.04417 2.74173 -1.0574 7.3787 1 -7.34061 0.0392629 4
382 1 6.22771 2.72908 8.03265 -11.7229 -6.04498 5.56959 1 -7.36684 0.12759 4
383 1 8.06811 0.911449 8.07015 -11.14 2.83581 -0.88194 1 -7.32205 0.0827323 4
384 1 7.11605 3.57706 7.12219 -2.73505 5.70562 -4.71847 1 -7.3514 0.0387762 4
665 1 7.1926 0.00814522 7.15022 1.25518 -0.642809 1.71522 1 -7.37782 0.00306897 4
385 1 5.34762 0.00150986 5.36072 3.83302 -6.06256 -11.3452 1 -7.25335 0.112136 4
386 1 9.81058 0.896989 6.30453 -1.04941 1.12479 -6.55873 1 -7.33138 0.0282478 4
387 1 9.81085 2.66888 4.45981 -3.70106 -4.97901 -5.83689 1 -7.33287 0.0451618 4
388 1 10.6692 1.75637 5.3952 1.22577 -1.80589 -2.79267 1 -7.35641 0.00781939 4
389 1 11.5827 0.859612 4.52626 1.0579 -3.32447 -4.5862 1 -7.32037 0.0206674 4
390 1 11.5763 2.67119 6.27622 -0.277849 3.9021 -0.906036 1 -7.32665 0.0100363 4
391 1 8.96792 3.5796 5.34928 -4.99147 -7.34596 4.90426 1 -7.29947 0.0640661 4
392 1 12.5075 3.57442 5.36532 6.56985 -1.86866 1.63366 1 -7.38569 0.0307003 4
393 1 8.96572 1.79915 7.17838 -2.22196 8.1546 -0.014428 1 -7.35622 0.0444629 4
394 1 9.83293 2.71279 8.11012 -0.626368 1.14442 4.3513 1 -7.35274 0.0128443 4
395 1 12.4736 1.7806 7.1366 0.604715 6.83384 -5.47659 1 -7.36226 0.0479643 4
396 1 11.5627 0.860205 8.01381 -3.32641 -2.58094 -1.93921 1 -7.27564 0.013374 4
397 1 10.7145 3.55382 7.1704 6.44487 -4.32597 9.36943 1 -7.36225 0.0921418 4
679 1 8.9215 0.00423338 5.356 -0.376044 -5.88084 7.13761 1 -7.27364 0.053324 4
398 1 13.3639 0.847785 6.26878 -0.421869 4.40519 -0.794257 1 -7.34343 0.012582 4
399 1 13.3722 2.69372 4.48677 3.88808 -5.00698 -1.12015 1 -7.36386 0.0257945 4
400 1 14.2553 1.75611 5.37143 -0.0453175 1.02243 -7.38348 1 -7.28742 0.034584 4
401 1 15.2133 0.913358 4.49851 4.70084 6.02773 0.205639 1 -7.33613 0.0363956 4
402 1 15.0873 2.69114 6.29368 4.64776 -2.45322 2.46185 1 -7.27272 0.0209637 4
403 1 16.9242 0.910431 6.3022 -3.80105 -2.9929 -0.209008 1 -7.36582 0.0145954 4
404 1 16.9529 2.71856 4.48569 2.20668 -1.54441 -4.59921 1 -7.34275 0.0176815 4
405 1 16.0354 3.5599 5.39549 2.97572 1.23328 -4.08817 1 -7.37787 0.0168609 4
406 1 13.3534 2.63662 8.07568 3.55651 -0.212613 2.4298 1 -7.33022 0.0115758 4
407 1 16.0417 1.77143 7.17974 3.10768 -9.37321 -2.38476 1 -7.26162 0.0642355 4
408 1 15.1409 0.887695 8.02578 3.80362 -1.02216 2.50407 1 -7.39376 0.0135581 4
409 1 16.9727 2.72128 8.08742 -0.616041 7.42378 -3.13124 1 -7.32582 0.0406424 4
410 1 14.2738 3.58398 7.17063 0.287069 -0.0384383 11.0513 1 -7.31414 0.0760703 4
694 1 16.0951 0.00345092 5.41371 1.31043 -1.70699 -0.848686 1 -7.35381 0.0033308 4
412 1 17.8429 1.82823 5.3636 -4.43092 1.01432 -8.84102 1 -7.325 0.0615116 4
413 1 18.7293 0.903436 4.46835 5.22687 1.04875 -0.933505 1 -7.2633 0.0182318 4
414 1 18.7428 2.69743 6.29303 -0.322416 -8.42433 4.60704 1 -7.31532 0.0574488 4
415 1 20.5438 0.913488 6.31357 -1.6629 5.40115 1.30723 1 -7.39406 0.0209424 4
416 1 20.532 2.69237 4.50143 7.47255 3.00054 -7.54453 1 -7.38109 0.0757879 4
417 1 19.6214 3.58902 5.36128 1.99003 -1.6202 7.13412 1 -7.33965 0.0357777 4
418 1 19.6466 1.76585 7.19735 2.14005 -5.19087 -2.62753 1 -7.32851 0.0239191 4
419 1 18.7091 0.889032 8.092 -2.89862 3.88061 -0.466957 1 -7.39001 0.0147386 4
420 1 20.5353 2.72311 8.07271 -2.42326 0.979238 -5.08714 1 -7.28771 0.0203596 4
421 1 17.8664 3.57289 7.19673 7.39646 1.58701 -1.6204 1 -7.37922 0.0372534 4
709 1 17.7971 0.0312575 7.18274 18.2776 -8.70977 8.24751 1 -7.28245 0.297489 4
423 1 0.938907 4.48375 4.49827 -1.49428 -5.71887 7.30587 1 -7.24806 0.054969 4
424 1 0.888491 6.27236 6.29605 0.131833 -3.15336 -2.16405 1 -7.31663 0.00911493 4
425 1 2.72581 4.49022 6.25581 -3.92468 -6.97874 7.13722 1 -7.33622 0.0716075 4
426 1 2.69262 6.2274 4.50567 4.70207 -5.2516 -7.63317 1 -7.3041 0.0671934 4
427 1 3.58091 5.3692 5.37972 1.75874 1.43055 0.450116 1 -7.46305 0.00332516 4
428 1 1.76767 7.145 5.38019 -0.760177 5.05672 10.2852 1 -7.27911 0.082119 4
429 1 0.911828 8.03861 4.4423 -1.53592 -3.86079 -0.406463 1 -7.30042 0.0108489 4
430 1 2.70081 8.05533 6.26993 -6.94091 -6.19629 4.48445 1 -7.22872 0.0664008 4
431 1 1.80083 5.37449 7.19349 -1.79464 -2.80608 -0.0244238 1 -7.26241 0.00690608 4