ITEM: TIMESTEP
49126000
ITEM: NUMBER OF ATOMS
3060
ITEM: BOX BOUNDS pp pp mm
0.0000000000000000e+00 2.1394294200000001e+01
0.0000000000000000e+00 2.1394294200000001e+01
-5.3491084073550004e-03 5.3485735499999997e+01
ITEM: ATOMS id type x y z vx vy vz c_clusts c_atom_pe c_atom_ke c_atom_coord
1 1 0 0 0 0 0 0 1 -3.336 0 2
2 1 1.78286 1.78286 0 0 0 0 1 -3.31223 0 2
3 1 0.891429 0.891429 0.891429 0 0 0 1 -7.00669 0 4
4 1 0.885927 2.64045 2.70246 3.1495 -1.18711 -4.82823 1 -7.31186 0.0215611 4
5 1 2.68851 0.875822 2.68657 9.6811 3.04407 9.56781 1 -7.35995 0.121082 4
6 1 2.67429 2.67429 0.891429 0 0 0 1 -7.02787 0 4
7 1 3.56572 0 0 0 0 0 1 -3.32319 0 2
8 1 3.54945 1.74406 1.76496 1.80897 1.56339 8.51732 1 -7.34631 0.0487118 4
9 1 0 3.56572 0 0 0 0 1 -3.32417 0 2
10 1 1.78699 3.55272 1.78648 4.75693 1.89125 4.80418 1 -7.29776 0.0306765 4
11 1 3.56572 3.56572 0 0 0 0 1 -3.33592 0 2
12 1 1.8055 1.82918 3.56271 -6.83719 -4.09546 -2.02745 1 -7.34633 0.042095 4
13 1 3.62255 3.50065 3.62205 -3.17759 0.129701 -2.1854 1 -7.2108 0.00926786 4
292 1 1.79587 0.00968006 1.77892 5.33631 -0.933388 -3.27153 1 -7.33002 0.0249284 4
56 1 -0.0283804 3.54846 3.57669 -5.05439 -10.1012 -0.552855 1 -7.37077 0.0795997 4
55 1 -0.0104744 1.79978 1.77922 1.845 -7.14289 2.70519 1 -7.3447 0.0384304 4
291 1 3.55375 -0.0115023 3.57326 1.39045 9.13504 0.497117 1 -7.32106 0.0532979 4
350 1 0.0275338 0.0415619 3.5382 -1.54819 -3.32312 4.88269 1 -7.32225 0.0232045 4
14 1 5.34857 1.78286 0 0 0 0 1 -3.33573 0 2
15 1 4.45714 0.891429 0.891429 0 0 0 1 -7.03402 0 4
16 1 4.46286 2.62198 2.67816 2.48713 6.56138 -3.54301 1 -7.345 0.03846 4
17 1 6.28062 0.865417 2.65641 -2.95059 -4.78157 -0.0975663 1 -7.22606 0.0196555 4
18 1 6.24 2.67429 0.891429 0 0 0 1 -7.03139 0 4
19 1 7.13143 0 0 0 0 0 1 -3.33686 0 2
20 1 7.15501 1.7666 1.74996 -4.38882 -1.50078 2.95033 1 -7.37185 0.0188088 4
21 1 8.02286 0.891429 0.891429 0 0 0 1 -7.00973 0 4
22 1 8.08205 2.65542 2.66038 -0.191392 -5.81525 4.04841 1 -7.28816 0.0312728 4
23 1 5.34668 3.52988 1.7789 1.59795 1.95306 -8.80402 1 -7.35579 0.0522082 4
24 1 7.13143 3.56572 0 0 0 0 1 -3.33419 0 2
25 1 5.33177 1.75083 3.61508 -6.04328 5.2199 -4.76331 1 -7.26603 0.0538135 4
26 1 7.13525 3.54609 3.5706 6.60594 5.80672 6.08273 1 -7.3003 0.0711782 4
306 1 7.10408 -0.0551974 3.62061 -3.7044 4.51719 0.496491 1 -7.24785 0.0213953 4
28 1 8.91429 1.78286 0 0 0 0 1 -3.32563 0 2
29 1 9.75444 0.869137 2.71429 -3.71071 10.458 1.54487 1 -7.28281 0.0781303 4
30 1 9.80572 2.67429 0.891429 0 0 0 1 -7.01365 0 4
31 1 10.6971 0 0 0 0 0 1 -3.32717 0 2
32 1 10.6916 1.78929 1.77192 5.54737 1.40139 4.0029 1 -7.31886 0.0303498 4
33 1 12.48 1.78286 0 0 0 0 1 -3.33868 0 2
34 1 11.5886 0.891429 0.891429 0 0 0 1 -7.01587 0 4
35 1 11.6017 2.66568 2.65836 4.32235 -4.54263 -0.663803 1 -7.3416 0.0247469 4
36 1 8.90322 3.55881 1.7755 -4.67126 7.56261 -2.41876 1 -7.38631 0.0528217 4
37 1 10.6971 3.56572 0 0 0 0 1 -3.32729 0 2
38 1 12.4895 3.56039 1.77609 -1.39587 -4.64007 -8.11635 1 -7.32231 0.0556162 4
39 1 8.91889 1.76354 3.59577 5.16988 5.24617 -5.76232 1 -7.40937 0.0544338 4
40 1 12.5239 1.76813 3.53719 -5.0243 2.05364 9.43383 1 -7.2806 0.0737314 4
41 1 10.7197 3.5608 3.57893 -4.82256 -6.0591 -1.42088 1 -7.35448 0.0385833 4
319 1 10.6568 -0.0384174 3.57165 1.96882 7.86355 0.971675 1 -7.28804 0.0414883 4
42 1 13.3513 0.861013 2.63498 2.97597 -5.22053 -4.99577 1 -7.3644 0.0380104 4
43 1 13.3714 2.67429 0.891429 0 0 0 1 -7.01202 0 4
44 1 14.2629 0 0 0 0 0 1 -3.3303 0 2
45 1 14.27 1.77091 1.78486 -2.9566 3.69409 -2.00557 1 -7.38708 0.0164383 4
46 1 16.0457 1.78286 0 0 0 0 1 -3.34043 0 2
47 1 15.1543 0.891429 0.891429 0 0 0 1 -7.02229 0 4
48 1 15.1252 2.63947 2.63461 5.69853 -3.58466 -0.656773 1 -7.32224 0.0284787 4
49 1 16.9554 0.892445 2.65393 7.21146 -6.30105 2.42557 1 -7.31249 0.0607436 4
50 1 16.9371 2.67429 0.891429 0 0 0 1 -6.99849 0 4
51 1 14.2629 3.56572 0 0 0 0 1 -3.32806 0 2
52 1 16.0342 3.56459 1.76982 -6.86268 5.46776 -1.92617 1 -7.3578 0.0502317 4
53 1 16.0455 1.72884 3.57662 7.37385 -1.77784 -0.1801 1 -7.28743 0.0358311 4
54 1 14.2822 3.53837 3.56516 2.31034 2.364 2.23234 1 -7.3155 0.00990249 4
336 1 14.209 -0.014114 3.57374 -4.19283 -0.729422 5.73551 1 -7.29146 0.0317487 4
57 1 17.8286 0 0 0 0 0 1 -3.34366 0 2
58 1 17.8636 1.80257 1.80529 6.71872 -7.9385 -2.25459 1 -7.36472 0.0704861 4
59 1 19.6114 1.78286 0 0 0 0 1 -3.32007 0 2
60 1 18.72 0.891429 0.891429 0 0 0 1 -6.99817 0 4
61 1 18.7758 2.65156 2.68129 -8.24679 -1.70678 -0.0145831 1 -7.3575 0.0441442 4
62 1 20.5042 0.895247 2.69009 -0.746769 -5.72597 2.3769 1 -7.31424 0.0242709 4
63 1 20.5029 2.67429 0.891429 0 0 0 1 -7.04446 0 4
64 1 17.8286 3.56572 0 0 0 0 1 -3.32509 0 2
65 1 19.6183 3.56166 1.7549 -5.27134 -1.71418 -1.64468 1 -7.34994 0.0208079 4
66 1 19.6291 1.75892 3.58413 3.05018 -3.78284 -0.629744 1 -7.34155 0.0149445 4
67 1 17.8663 3.55283 3.56833 -2.08612 -1.27541 0.810139 1 -7.30217 0.00412973 4
68 1 19.6238 0.0193087 1.76133 -2.20862 2.27498 -2.1201 1 -7.35019 0.00905528 4
349 1 17.8229 -0.00911055 3.57917 -1.9551 -1.85205 1.49972 1 -7.39334 0.00591406 4
69 1 1.78286 5.34857 0 0 0 0 1 -3.32421 0 2
70 1 0.891429 4.45714 0.891429 0 0 0 1 -7.02083 0 4
71 1 0.915767 6.22026 2.69747 -5.65196 11.2622 3.9949 1 -7.34028 0.108763 4
72 1 2.71302 4.4434 2.71023 1.03507 6.33766 -8.02138 1 -7.26428 0.0657157 4
73 1 2.67429 6.24 0.891429 0 0 0 1 -6.98172 0 4
74 1 3.5963 5.30256 1.78302 2.20803 1.21364 -0.697512 1 -7.33798 0.00425419 4
75 1 0 7.13143 0 0 0 0 1 -3.3378 0 2
76 1 1.77546 7.09813 1.79125 6.28342 4.9593 10.8497 1 -7.35553 0.113153 4
77 1 0.891429 8.02286 0.891429 0 0 0 1 -7.01669 0 4
78 1 2.67693 8.03478 2.65743 -2.53438 -6.06628 3.49256 1 -7.32982 0.0344954 4
79 1 3.56572 7.13143 0 0 0 0 1 -3.33797 0 2
80 1 1.79556 5.33663 3.57575 4.9466 3.98221 2.20544 1 -7.40042 0.028128 4
81 1 3.54357 7.12786 3.5912 0.218235 -5.80872 -1.46927 1 -7.30484 0.0223748 4
128 1 -0.010917 5.3434 1.76937 6.31693 3.96669 6.23929 1 -7.33615 0.058861 4
82 1 -0.0518405 7.11494 3.5815 -1.9419 2.46022 -1.29214 1 -7.29511 0.00715373 4
83 1 5.34857 5.34857 0 0 0 0 1 -3.35081 0 2
84 1 4.45714 4.45714 0.891429 0 0 0 1 -7.03213 0 4
85 1 4.44137 6.24155 2.67363 -1.75021 11.3383 0.100798 1 -7.30426 0.0819306 4
86 1 6.25309 4.46091 2.67283 -0.975957 -6.52289 2.09739 1 -7.34468 0.029814 4
87 1 6.24 6.24 0.891429 0 0 0 1 -7.04476 0 4
88 1 7.15202 5.35171 1.76819 -0.988534 -9.51187 10.0256 1 -7.34992 0.119484 4
89 1 8.02286 4.45714 0.891429 0 0 0 1 -7.04377 0 4
90 1 8.07146 6.22775 2.69448 -3.19788 -2.047 1.99705 1 -7.26236 0.0114557 4
91 1 5.36468 7.13545 1.77641 -4.99328 -2.2943 -0.750284 1 -7.36568 0.0191456 4
92 1 4.45714 8.02286 0.891429 0 0 0 1 -7.00293 0 4
93 1 6.19448 8.01082 2.64343 8.47713 -1.60315 0.414115 1 -7.36589 0.0464351 4
94 1 7.13143 7.13143 0 0 0 0 1 -3.30362 0 2
95 1 8.02286 8.02286 0.891429 0 0 0 1 -6.94292 0 4
96 1 5.37746 5.36714 3.53639 -7.56004 -5.39342 3.33374 1 -7.35987 0.0605976 4
97 1 7.11445 7.16644 3.58594 -6.41006 5.11217 -2.37328 1 -7.2694 0.0453473 4
98 1 8.91429 5.34857 0 0 0 0 1 -3.33485 0 2
99 1 9.80064 4.43993 2.68758 2.43853 1.55441 1.59737 1 -7.33619 0.00679329 4
100 1 9.80572 6.24 0.891429 0 0 0 1 -6.99259 0 4
101 1 10.6643 5.34876 1.7859 -3.69422 5.38564 2.42959 1 -7.34552 0.0302221 4
102 1 12.48 5.34857 0 0 0 0 1 -3.33708 0 2
103 1 11.5886 4.45714 0.891429 0 0 0 1 -6.99732 0 4
104 1 11.5667 6.21139 2.72099 -6.19913 -0.238836 0.809365 1 -7.25044 0.0243626 4
105 1 8.9137 7.14178 1.83227 -1.81025 3.8539 4.3604 1 -7.30926 0.0231185 4
106 1 9.84873 8.08087 2.66288 -3.84531 0.874472 9.73208 1 -7.31855 0.0686315 4
107 1 10.6971 7.13143 0 0 0 0 1 -3.36735 0 2
108 1 12.4834 7.13691 1.79456 -4.54552 8.21729 -5.34739 1 -7.31183 0.0726871 4
109 1 11.5886 8.02286 0.891429 0 0 0 1 -7.00974 0 4
110 1 8.94703 5.31413 3.6123 3.12134 6.46498 7.64546 1 -7.3823 0.0684618 4
111 1 12.4874 5.30443 3.60466 3.41379 -5.92609 -0.476921 1 -7.341 0.029254 4
112 1 10.7175 7.17881 3.57692 0.585404 -1.05085 -1.44207 1 -7.29202 0.00219502 4
113 1 13.372 4.48619 2.69813 -2.08248 11.2124 -1.98865 1 -7.29086 0.0834105 4
114 1 13.3714 6.24 0.891429 0 0 0 1 -7.02074 0 4
115 1 14.269 5.35991 1.73934 9.05505 -5.46134 8.68452 1 -7.35856 0.116544 4
116 1 16.0457 5.34857 0 0 0 0 1 -3.33438 0 2
117 1 15.1543 4.45714 0.891429 0 0 0 1 -7.0616 0 4
118 1 15.1264 6.2537 2.68156 -5.7614 -4.28669 0.219023 1 -7.32821 0.032128 4
119 1 16.9421 4.43935 2.71595 -6.13518 4.16708 1.5546 1 -7.30451 0.0357408 4
120 1 16.9371 6.24 0.891429 0 0 0 1 -7.03981 0 4
121 1 13.3814 8.02193 2.69433 -1.45725 6.33901 0.34308 1 -7.31261 0.026406 4
122 1 14.2629 7.13143 0 0 0 0 1 -3.32585 0 2
123 1 16.0771 7.14851 1.75193 2.7212 -4.50528 -4.58589 1 -7.31614 0.0303326 4
124 1 15.1543 8.02286 0.891429 0 0 0 1 -7.00873 0 4
125 1 16.9675 7.9834 2.62099 1.00932 1.24932 -5.76776 1 -7.30389 0.0223118 4
126 1 16.0715 5.40395 3.53735 8.58889 0.258267 -0.875388 1 -7.29485 0.0464342 4
127 1 14.2836 7.12541 3.58812 -2.94918 7.18492 -3.22761 1 -7.40061 0.0440293 4
129 1 17.838 5.35483 1.77738 0.171024 1.09719 7.08095 1 -7.29569 0.0319759 4
130 1 19.6114 5.34857 0 0 0 0 1 -3.30765 0 2
131 1 18.72 4.45714 0.891429 0 0 0 1 -7.0437 0 4
132 1 18.7358 6.21662 2.70277 0.76959 -0.962538 6.48831 1 -7.33395 0.0271483 4
133 1 20.5059 4.452 2.6742 2.82981 -1.14544 5.55638 1 -7.398 0.0250174 4
134 1 20.5029 6.24 0.891429 0 0 0 1 -7.01442 0 4
135 1 17.8286 7.13143 0 0 0 0 1 -3.31113 0 2
136 1 19.5607 7.11711 1.7808 -1.79438 -4.98645 5.44984 1 -7.33134 0.0359671 4
137 1 18.72 8.02286 0.891429 0 0 0 1 -7.01199 0 4
138 1 20.4766 7.98744 2.69208 2.9852 -6.8296 3.61491 1 -7.29577 0.0427124 4
139 1 19.6304 5.33066 3.554 -5.98314 -2.70905 -5.71568 1 -7.39565 0.0471836 4
140 1 17.8456 7.13666 3.57826 -7.71246 -9.89687 -3.80255 1 -7.31475 0.106989 4
141 1 1.78286 8.91429 0 0 0 0 1 -3.32969 0 2
142 1 0.914708 9.78645 2.71571 1.00661 0.0886565 4.45409 1 -7.3028 0.0129838 4
143 1 2.67429 9.80572 0.891429 0 0 0 1 -7.03182 0 4
144 1 3.54667 8.92217 1.76241 3.34891 -4.36435 3.02049 1 -7.4258 0.024515 4
145 1 0 10.6971 0 0 0 0 1 -3.33343 0 2
146 1 1.76502 10.6942 1.73218 -1.02299 -4.21533 -1.97651 1 -7.31526 0.0141428 4
147 1 1.78286 12.48 0 0 0 0 1 -3.30703 0 2
148 1 0.891429 11.5886 0.891429 0 0 0 1 -7.0414 0 4
149 1 2.67638 11.5862 2.6316 -2.43412 2.74564 -1.70596 1 -7.35071 0.0101915 4
150 1 3.56572 10.6971 0 0 0 0 1 -3.3136 0 2
151 1 3.51477 12.4777 1.76116 -2.16496 9.35009 0.67406 1 -7.32188 0.0576153 4
152 1 1.80147 8.91972 3.55301 -0.420059 -4.26583 -8.22719 1 -7.3807 0.0535663 4
153 1 1.80892 12.4935 3.54561 -10.8884 0.456507 4.08072 1 -7.35128 0.084288 4
154 1 3.55326 10.7133 3.51573 -2.64418 2.63774 9.80675 1 -7.37955 0.0685426 4
205 1 0.021523 8.88733 1.77539 7.79864 -5.71945 -1.6322 1 -7.2978 0.0598743 4
204 1 0.0274687 12.5029 1.75508 12.8013 -1.76385 -1.01066 1 -7.36709 0.104571 4
155 1 5.34857 8.91429 0 0 0 0 1 -3.31017 0 2
156 1 4.42111 9.78027 2.65504 -3.21583 -5.0972 2.32692 1 -7.33737 0.0259786 4
157 1 6.24 9.80572 0.891429 0 0 0 1 -7.01671 0 4
158 1 7.03978 8.88725 1.77983 2.77319 1.82434 -0.126783 1 -7.29513 0.0068684 4
159 1 7.99392 9.78206 2.62654 0.66249 0.0530397 4.10042 1 -7.23925 0.01074 4
160 1 5.37095 10.6718 1.78686 -3.02585 -3.54082 -2.39507 1 -7.31434 0.0170729 4
161 1 5.34857 12.48 0 0 0 0 1 -3.34887 0 2
162 1 4.45714 11.5886 0.891429 0 0 0 1 -6.93765 0 4
163 1 6.22795 11.6095 2.6706 -4.16744 -1.33533 1.9112 1 -7.35755 0.0141934 4
164 1 7.13143 10.6971 0 0 0 0 1 -3.36469 0 2
165 1 7.11324 12.4949 1.80071 0.727881 4.44011 -4.67697 1 -7.38137 0.0262156 4
166 1 8.02286 11.5886 0.891429 0 0 0 1 -7.01398 0 4
167 1 5.30521 8.93087 3.57035 0.0505599 3.80703 -7.5521 1 -7.36048 0.0445223 4
168 1 5.31054 12.4811 3.54748 1.21231 0.345317 -1.09466 1 -7.3357 0.00173484 4
169 1 7.10109 10.7287 3.55977 0.280957 1.28866 -4.05148 1 -7.30385 0.0112996 4
170 1 8.91429 8.91429 0 0 0 0 1 -3.36484 0 2
171 1 9.80572 9.80572 0.891429 0 0 0 1 -6.92412 0 4
172 1 10.755 8.95497 1.79854 11.5582 -3.14849 6.03029 1 -7.3693 0.111956 4
173 1 12.48 8.91429 0 0 0 0 1 -3.32304 0 2
174 1 11.6426 9.83121 2.69632 1.60146 1.83273 -1.00518 1 -7.40423 0.00431588 4
175 1 8.86916 10.7388 1.78173 -4.07851 -1.94089 0.444696 1 -7.28291 0.0128214 4
176 1 8.91429 12.48 0 0 0 0 1 -3.33985 0 2
177 1 9.8405 11.6066 2.67227 0.607963 0.518155 1.44189 1 -7.29417 0.00169123 4
178 1 10.6971 10.6971 0 0 0 0 1 -3.33039 0 2
179 1 10.7445 12.4955 1.76184 -1.34041 7.07929 -0.647489 1 -7.3458 0.032573 4
180 1 12.4977 10.7204 1.78881 -4.6944 1.5666 0.90742 1 -7.38139 0.0157568 4
181 1 12.48 12.48 0 0 0 0 1 -3.32124 0 2
182 1 11.5886 11.5886 0.891429 0 0 0 1 -7.04258 0 4
183 1 8.90697 8.93628 3.56075 1.69524 1.85623 -2.27578 1 -7.33267 0.00715704 4
184 1 12.4961 8.95815 3.62044 -2.67116 2.58133 -2.93654 1 -7.36484 0.0139558 4
185 1 8.92491 12.5118 3.55022 2.93285 -3.26067 2.11858 1 -7.31878 0.0147652 4
186 1 10.7287 10.7021 3.54472 0.431933 -0.158405 1.3489 1 -7.3957 0.00126427 4
187 1 12.5087 12.5289 3.57286 -1.47555 -8.64968 -6.49137 1 -7.33011 0.074151 4
188 1 13.3714 9.80572 0.891429 0 0 0 1 -7.0085 0 4
189 1 14.2514 8.91049 1.77767 -3.1138 0.963223 -3.64895 1 -7.35371 0.0148999 4
190 1 16.0457 8.91429 0 0 0 0 1 -3.34034 0 2
191 1 15.1849 9.84285 2.62932 2.58706 7.77626 -3.04474 1 -7.24979 0.0475743 4
192 1 16.9371 9.80572 0.891429 0 0 0 1 -7.01444 0 4
193 1 13.3924 11.6144 2.65536 2.67487 2.09491 -0.385357 1 -7.30365 0.00727745 4
194 1 14.2629 10.6971 0 0 0 0 1 -3.34483 0 2
195 1 14.2428 12.5123 1.78136 2.21714 2.96395 6.02576 1 -7.36141 0.0311279 4
196 1 16.0869 10.7554 1.77152 -5.5796 0.720846 -2.89725 1 -7.33619 0.0249254 4
197 1 16.0457 12.48 0 0 0 0 1 -3.30012 0 2
198 1 15.1543 11.5886 0.891429 0 0 0 1 -6.99102 0 4
199 1 16.9605 11.5654 2.70467 -1.83145 5.19299 -6.73254 1 -7.33256 0.0470856 4
200 1 16.0242 8.9154 3.55949 0.950386 10.986 -7.71432 1 -7.26288 0.112725 4
201 1 14.2958 10.7026 3.59029 -7.73636 1.45865 1.73517 1 -7.35304 0.0404513 4
202 1 16.0376 12.4785 3.59806 -7.3368 -2.24196 2.48339 1 -7.33918 0.0404715 4
203 1 21.4294 10.6912 3.58668 -9.93162 -5.12081 4.42479 1 -7.36995 0.0899023 4
206 1 17.8338 8.9294 1.78266 -4.27629 -6.23653 -1.18064 1 -7.30793 0.0364586 4
207 1 19.6114 8.91429 0 0 0 0 1 -3.3411 0 2
208 1 18.7663 9.81166 2.71329 1.88473 -3.18606 -3.20068 1 -7.29642 0.0149056 4
209 1 20.5029 9.80572 0.891429 0 0 0 1 -6.9696 0 4
210 1 17.8286 10.6971 0 0 0 0 1 -3.30637 0 2
211 1 17.8292 12.4399 1.7604 1.49723 -5.72615 1.74941 1 -7.30807 0.0237087 4
212 1 19.6003 10.7007 1.82735 -8.00975 -1.04129 2.98819 1 -7.35604 0.0461651 4
213 1 19.6114 12.48 0 0 0 0 1 -3.35526 0 2
214 1 18.72 11.5886 0.891429 0 0 0 1 -7.03215 0 4
215 1 20.5211 11.594 2.6778 -0.841102 -11.0826 -3.76936 1 -7.29459 0.085733 4
216 1 19.6488 8.88367 3.61951 -3.30472 -8.03413 -1.1397 1 -7.29986 0.047782 4
217 1 17.7911 10.6719 3.61467 -0.896962 -2.79805 0.499993 1 -7.30537 0.00552939 4
218 1 19.6047 12.4692 3.57612 2.58908 0.134344 -4.40733 1 -7.31328 0.0162739 4
219 1 0.914259 13.3568 2.64174 -2.02945 -3.11131 -4.48173 1 -7.37643 0.0210908 4
220 1 2.67429 13.3714 0.891429 0 0 0 1 -7.0181 0 4
221 1 0 14.2629 0 0 0 0 1 -3.31537 0 2
222 1 1.78312 14.256 1.76239 4.47322 -4.05146 -1.2974 1 -7.37751 0.0237189 4
223 1 1.78286 16.0457 0 0 0 0 1 -3.32499 0 2
224 1 0.891429 15.1543 0.891429 0 0 0 1 -7.0378 0 4
225 1 0.879435 16.9243 2.68166 2.24493 0.504158 -1.74792 1 -7.35229 0.00519669 4
226 1 2.68622 15.108 2.66675 -2.4315 -1.2779 -6.13768 1 -7.32387 0.0281438 4
227 1 2.67429 16.9371 0.891429 0 0 0 1 -7.00677 0 4
228 1 3.56572 14.2629 0 0 0 0 1 -3.35224 0 2
229 1 3.58205 16.0361 1.79413 5.06779 -11.4638 7.37257 1 -7.34919 0.131616 4
230 1 1.78857 16.0472 3.57824 2.5653 -2.71142 1.7659 1 -7.33975 0.010613 4
231 1 3.57835 14.2665 3.5461 4.33048 10.1503 5.68926 1 -7.33708 0.0959469 4
233 1 0.00165081 16.0259 1.74474 5.61077 3.34795 0.886365 1 -7.34554 0.0270601 4
232 1 0.0161645 14.2452 3.48616 4.96687 3.34304 5.83387 1 -7.31743 0.043495 4
234 1 4.47473 13.3835 2.637 -7.99951 1.23174 -3.50534 1 -7.29911 0.0484228 4
235 1 6.24 13.3714 0.891429 0 0 0 1 -7.02101 0 4
236 1 7.9837 13.3748 2.65406 -0.0349427 -2.9031 -1.26082 1 -7.36202 0.006236 4
237 1 5.38571 14.2663 1.78249 0.530246 0.93307 3.55168 1 -7.34818 0.00856847 4
238 1 5.34857 16.0457 0 0 0 0 1 -3.32404 0 2
239 1 4.45714 15.1543 0.891429 0 0 0 1 -6.97145 0 4
240 1 4.46508 16.9201 2.64654 -2.42614 -0.632748 -2.52302 1 -7.31869 0.00787501 4
241 1 6.23583 15.1991 2.67437 9.22572 -0.421105 -3.0744 1 -7.31237 0.0589707 4
242 1 6.24 16.9371 0.891429 0 0 0 1 -6.99196 0 4
243 1 7.13143 14.2629 0 0 0 0 1 -3.34337 0 2
244 1 7.16505 16.0617 1.78069 -3.33229 1.47376 -4.0419 1 -7.36366 0.018432 4
245 1 8.02286 15.1543 0.891429 0 0 0 1 -7.03574 0 4
246 1 8.05903 16.9324 2.6458 -7.06464 -3.93499 -6.04594 1 -7.33071 0.0634543 4
247 1 5.32236 16.0636 3.54867 -6.64435 -5.98668 -4.66448 1 -7.40266 0.0633288 4
248 1 7.1325 14.2636 3.58465 -4.65554 -0.103664 1.68933 1 -7.30276 0.0152735 4
249 1 9.80572 13.3714 0.891429 0 0 0 1 -6.97015 0 4
250 1 11.5881 13.4012 2.70102 -5.83335 13.3358 -2.54149 1 -7.27967 0.135895 4
251 1 8.87296 14.2884 1.77784 -5.30951 -1.16649 1.40405 1 -7.36407 0.0196207 4
252 1 8.91429 16.0457 0 0 0 0 1 -3.33336 0 2
253 1 9.7895 15.1287 2.6641 -4.00214 -7.055 -3.70707 1 -7.25563 0.0495031 4
254 1 9.80572 16.9371 0.891429 0 0 0 1 -7.01219 0 4
255 1 10.6971 14.2629 0 0 0 0 1 -3.32295 0 2
256 1 10.6919 16.06 1.78142 -9.40072 -0.691429 -2.14305 1 -7.37677 0.0581622 4
257 1 12.4695 14.3012 1.77241 -0.125521 1.38086 5.47583 1 -7.34493 0.0198599 4
258 1 12.48 16.0457 0 0 0 0 1 -3.32208 0 2
259 1 11.5886 15.1543 0.891429 0 0 0 1 -7.03335 0 4
260 1 11.5445 16.9472 2.6763 1.9475 0.515147 -5.59248 1 -7.27965 0.0219928 4
261 1 8.92885 16.0177 3.5615 2.57116 1.48192 3.35654 1 -7.31366 0.0124941 4
262 1 10.6962 14.2537 3.65475 -5.13034 0.831862 4.70952 1 -7.31421 0.0306183 4
263 1 12.5192 16.0373 3.57507 -2.63587 -8.44756 -5.72803 1 -7.32559 0.0691637 4
264 1 13.3714 13.3714 0.891429 0 0 0 1 -7.03358 0 4
265 1 15.1662 13.3469 2.70606 0.468766 -7.05144 -7.56643 1 -7.34969 0.0667199 4
266 1 16.9371 13.3714 0.891429 0 0 0 1 -6.9859 0 4
267 1 13.376 15.1566 2.65793 -0.911513 -3.71864 -5.04589 1 -7.33942 0.0249718 4
268 1 13.3714 16.9371 0.891429 0 0 0 1 -7.04708 0 4
269 1 14.2629 14.2629 0 0 0 0 1 -3.32767 0 2
270 1 14.2694 16.0294 1.744 -6.58993 -0.471916 4.91282 1 -7.33851 0.0421916 4
271 1 16.0333 14.2806 1.82234 1.62078 1.91183 1.21192 1 -7.33056 0.00482427 4
272 1 16.0457 16.0457 0 0 0 0 1 -3.34493 0 2
273 1 15.1543 15.1543 0.891429 0 0 0 1 -7.03279 0 4
274 1 15.1494 16.9069 2.69852 -1.85762 1.06037 1.41598 1 -7.25229 0.00409565 4
275 1 16.8906 15.161 2.70417 -0.0270586 -3.94594 1.85163 1 -7.37879 0.0118259 4
276 1 16.9371 16.9371 0.891429 0 0 0 1 -7.04597 0 4
277 1 14.2723 14.2825 3.59912 -5.39306 -2.64485 4.40574 1 -7.32013 0.034539 4
278 1 16.0479 16.0263 3.60672 -3.57753 2.68066 12.9708 1 -7.33752 0.117157 4
279 1 18.6947 13.3559 2.68954 3.59474 7.97716 1.53141 1 -7.33884 0.049111 4
280 1 20.5029 13.3714 0.891429 0 0 0 1 -7.01779 0 4
281 1 17.8286 14.2629 0 0 0 0 1 -3.32938 0 2
282 1 17.7939 16.059 1.77846 6.4824 6.64754 3.22445 1 -7.33757 0.0601316 4
283 1 19.6195 14.244 1.79924 1.6214 11.5664 0.191028 1 -7.35801 0.0849278 4
284 1 19.6114 16.0457 0 0 0 0 1 -3.32096 0 2
285 1 18.72 15.1543 0.891429 0 0 0 1 -6.97853 0 4
286 1 18.7399 16.9222 2.67 -2.55151 -1.79438 -6.03171 1 -7.35345 0.028701 4
287 1 20.5248 15.1016 2.63074 -1.98904 4.41698 -7.21029 1 -7.28814 0.0469647 4
288 1 20.5029 16.9371 0.891429 0 0 0 1 -7.0456 0 4
289 1 17.7948 14.2373 3.57421 -2.1945 -1.33116 0.178432 1 -7.30488 0.00412025 4
290 1 19.6145 16.0573 3.5918 4.77724 1.02801 -6.18781 1 -7.2771 0.0386948 4
293 1 0 17.8286 0 0 0 0 1 -3.32059 0 2
294 1 1.75191 17.8243 1.77787 -1.0328 5.16645 -4.70753 1 -7.30387 0.0310713 4
295 1 1.78286 19.6114 0 0 0 0 1 -3.34276 0 2
296 1 0.891429 18.72 0.891429 0 0 0 1 -7.0241 0 4
297 1 0.867147 20.5065 2.66131 -7.7205 4.19789 1.7915 1 -7.31696 0.0500667 4
298 1 2.66412 18.7561 2.72973 -3.79107 -1.81739 -7.76581 1 -7.34424 0.0485385 4
299 1 2.67429 20.5029 0.891429 0 0 0 1 -7.0341 0 4
300 1 3.56572 17.8286 0 0 0 0 1 -3.31305 0 2
301 1 3.51312 19.6198 1.76958 0.232294 7.76294 9.44302 1 -7.29922 0.0930451 4
302 1 1.78061 19.6115 3.5623 1.03603 -5.70002 -11.4768 1 -7.34604 0.102874 4
303 1 3.55528 17.8905 3.57714 2.32991 -3.80311 -11.4404 1 -7.30573 0.0938466 4
305 1 -0.0460883 19.6034 1.75288 0.154774 -1.10749 2.42493 1 -7.38891 0.00443839 4
27 1 5.33535 21.3847 1.77204 -2.7181 -0.149909 -2.72724 1 -7.36282 0.00924202 4
307 1 5.33854 17.8119 1.74296 -1.62905 6.89753 -4.31715 1 -7.36122 0.042865 4
308 1 5.34857 19.6114 0 0 0 0 1 -3.32765 0 2
309 1 4.45714 18.72 0.891429 0 0 0 1 -7.00823 0 4
310 1 4.48922 20.5176 2.63101 -2.08123 -1.50015 5.03353 1 -7.31326 0.0198668 4
311 1 6.27067 18.6837 2.66306 -1.79757 0.609078 -0.464366 1 -7.28734 0.00237633 4
312 1 6.24 20.5029 0.891429 0 0 0 1 -7.00779 0 4
313 1 7.13143 17.8286 0 0 0 0 1 -3.31998 0 2
314 1 7.12569 19.5963 1.79194 3.76488 3.96725 3.24977 1 -7.36258 0.0251923 4
315 1 8.02286 18.72 0.891429 0 0 0 1 -7.00097 0 4
316 1 8.01716 20.4571 2.66767 -5.67102 1.49364 -4.09035 1 -7.28341 0.0318199 4
317 1 5.35468 19.6277 3.52777 -8.87352 1.687 1.67077 1 -7.30705 0.0525184 4
318 1 7.15403 17.7915 3.60223 9.26925 5.25683 -2.68006 1 -7.35581 0.0751492 4
320 1 8.91975 21.3805 1.77124 -1.26687 -0.419559 -1.2974 1 -7.36099 0.00215624 4
321 1 12.4585 21.3687 1.77808 -1.70195 -1.10367 -0.140747 1 -7.42552 0.00257344 4
322 1 8.91303 17.8206 1.78173 -9.21787 -2.19103 -3.9482 1 -7.40186 0.0655776 4
323 1 8.91429 19.6114 0 0 0 0 1 -3.33488 0 2
324 1 9.79752 18.7148 2.65772 -7.16969 7.68844 4.27681 1 -7.35751 0.0801733 4
325 1 9.80572 20.5029 0.891429 0 0 0 1 -7.05468 0 4
326 1 10.6971 17.8286 0 0 0 0 1 -3.32595 0 2
327 1 10.6672 19.622 1.75762 -1.35799 -0.101198 -3.15566 1 -7.34452 0.00735245 4
328 1 12.496 17.8215 1.77561 -2.54215 4.19784 -6.13694 1 -7.33055 0.0384325 4
329 1 12.48 19.6114 0 0 0 0 1 -3.32312 0 2
330 1 11.5886 18.72 0.891429 0 0 0 1 -6.9647 0 4
331 1 11.6046 20.4863 2.63817 2.93361 -1.54129 -1.82413 1 -7.34197 0.00890632 4
332 1 8.92481 19.6019 3.58143 7.59306 2.66581 -1.11 1 -7.33591 0.0410759 4
333 1 10.7108 17.8599 3.55855 -12.1234 -0.676834 -5.4495 1 -7.39462 0.110252 4
334 1 12.457 19.6207 3.57416 -1.72481 2.26599 4.3972 1 -7.37102 0.0170825 4
335 1 16.0508 21.3831 1.76161 0.0290455 0.103287 2.72137 1 -7.36086 0.00461675 4
337 1 13.3838 18.7407 2.64529 -5.52984 -7.28787 -4.6662 1 -7.31284 0.0656445 4
338 1 13.3714 20.5029 0.891429 0 0 0 1 -7.01692 0 4
339 1 14.2629 17.8286 0 0 0 0 1 -3.33593 0 2
340 1 14.2768 19.6286 1.76578 -3.73433 -2.25892 -3.88411 1 -7.376 0.021246 4
341 1 16.0888 17.8329 1.76297 -4.58991 -1.99561 0.829426 1 -7.30011 0.0160198 4
342 1 16.0457 19.6114 0 0 0 0 1 -3.31877 0 2
343 1 15.1543 18.72 0.891429 0 0 0 1 -7.00641 0 4
344 1 15.1754 20.4769 2.66013 3.24539 1.67822 1.00364 1 -7.31924 0.00893571 4
345 1 16.9438 18.7134 2.68649 -2.04096 -0.977674 -3.15054 1 -7.33027 0.00936582 4
346 1 16.9371 20.5029 0.891429 0 0 0 1 -6.97829 0 4
347 1 14.2819 17.8204 3.55044 -4.9208 9.90364 6.6913 1 -7.3591 0.103989 4
348 1 16.0644 19.6067 3.55584 -4.75124 0.258099 0.291158 1 -7.38299 0.0141451 4
304 1 21.3715 17.8012 3.57817 1.17294 1.99258 -1.05555 1 -7.30466 0.00402109 4
351 1 17.8286 17.8286 0 0 0 0 1 -3.33111 0 2
352 1 17.8656 19.6185 1.81138 -1.32719 1.78232 -4.54674 1 -7.33074 0.0159409 4
353 1 19.6105 17.7805 1.77954 -1.40185 5.43227 2.60775 1 -7.34933 0.0238234 4
354 1 19.6114 19.6114 0 0 0 0 1 -3.32771 0 2
355 1 18.72 18.72 0.891429 0 0 0 1 -6.99172 0 4
356 1 18.707 20.5285 2.69615 -5.23486 1.08179 -9.81236 1 -7.31066 0.0777139 4
357 1 20.4885 18.7343 2.66154 -3.53488 0.937066 -10.0643 1 -7.31091 0.0713698 4
358 1 20.5029 20.5029 0.891429 0 0 0 1 -7.0419 0 4
359 1 17.8332 17.7954 3.60149 -4.43096 5.48178 -2.44857 1 -7.3435 0.0346559 4
360 1 19.6125 19.6215 3.5999 2.77357 5.76304 -0.761841 1 -7.36908 0.0258218 4
361 1 0.889154 0.935816 4.43352 -7.96981 2.29796 4.29032 1 -7.38811 0.0542789 4
362 1 0.876956 2.63429 6.25172 -5.40067 -0.629013 -2.63928 1 -7.34297 0.0227365 4
363 1 2.65047 0.889741 6.24207 -2.40659 -5.95119 -1.44864 1 -7.33633 0.0269553 4
364 1 2.67808 2.71876 4.48978 -9.17907 -16.7352 -2.57447 1 -7.33205 0.230888 4
365 1 3.55035 1.8057 5.36248 -10.091 3.3911 -3.7326 1 -7.30448 0.0792104 4
366 1 1.77726 3.58502 5.39889 2.70526 4.15956 -3.19274 1 -7.39094 0.0216691 4
367 1 1.75589 1.77108 7.17568 -2.9884 -4.70096 1.94318 1 -7.30592 0.0216639 4
368 1 0.848493 0.887868 8.08523 -2.13384 -0.862993 0.248927 1 -7.31428 0.0033362 4
369 1 2.62087 2.70712 8.04869 -10.7279 1.7918 1.07723 1 -7.3373 0.0743538 4
370 1 3.55099 3.59946 7.12852 1.2831 9.83953 -2.97396 1 -7.24081 0.0667908 4
411 1 -0.00580239 1.78848 5.33513 -2.80035 -3.06938 0.759867 1 -7.43222 0.0111044 4
371 1 0.0486741 3.54788 7.15963 5.41594 -2.64354 -4.06598 1 -7.3018 0.032897 4
651 1 3.59359 0.0190764 7.15319 -9.64127 5.38092 -4.63609 1 -7.31341 0.0892569 4
710 1 -0.0161615 0.00867989 7.16569 3.06844 2.14302 3.97266 1 -7.31938 0.018542 4
652 1 1.74865 0.0408032 5.32652 4.54228 -0.548486 -1.66415 1 -7.37058 0.0147531 4
372 1 4.46015 0.880718 4.44449 -0.908516 -5.56681 2.31698 1 -7.33996 0.0231438 4
373 1 4.46892 2.65317 6.24731 5.71747 0.502194 -7.82959 1 -7.30199 0.0586601 4
374 1 6.22941 0.890915 6.30176 -8.99543 -0.273839 5.04906 1 -7.36205 0.0662795 4
375 1 6.24309 2.63211 4.4896 -5.28318 6.96071 0.729306 1 -7.34029 0.0478617 4
376 1 7.08335 1.73256 5.34979 2.54096 -1.03761 -3.24772 1 -7.26574 0.011254 4
377 1 8.01925 0.865031 4.4334 -6.92327 -1.99302 0.618784 1 -7.32473 0.0325446 4
378 1 8.01638 2.63821 6.26798 3.94116 -5.21644 -7.51196 1 -7.28381 0.0617283 4
379 1 5.37097 3.5788 5.4317 0.0468901 1.67949 0.143107 1 -7.25502 0.00176978 4
380 1 5.3639 1.7837 7.19415 1.17877 6.54511 1.23142 1 -7.36417 0.0284725 4
381 1 4.43415 0.888766 8.0808 -3.62984 5.11418 5.21822 1 -7.32915 0.0414289 4
382 1 6.23369 2.68085 8.08446 -10.0889 -1.25489 4.81905 1 -7.40025 0.078789 4
383 1 8.01054 0.841247 8.06542 3.60372 -2.34855 -2.58393 1 -7.35441 0.0156722 4
384 1 7.129 3.54995 7.19721 0.553673 -2.24665 -1.49547 1 -7.37352 0.00472448 4
665 1 7.14152 -0.00466434 7.15284 4.73962 0.998762 2.90692 1 -7.38978 0.0198627 4
386 1 9.83088 0.897946 6.21941 -3.36846 -4.02156 -2.47282 1 -7.38473 0.0209349 4
387 1 9.81225 2.67841 4.48473 0.556905 -1.97992 -2.42117 1 -7.34973 0.00628172 4
388 1 10.6952 1.78039 5.37781 -0.975888 0.563679 4.06103 1 -7.36313 0.0110556 4
389 1 11.5788 0.888539 4.43757 0.0644707 0.360007 1.14432 1 -7.27821 0.0008983 4
390 1 11.6007 2.64665 6.26077 -0.773059 2.16803 -1.00516 1 -7.37361 0.00392646 4
391 1 8.91937 3.57631 5.35526 0.865139 0.269958 8.09479 1 -7.3172 0.0412961 4
392 1 12.5011 3.54201 5.36185 -5.39154 0.932273 -1.86426 1 -7.35855 0.0207973 4
393 1 8.912 1.71174 7.12378 7.08235 2.55167 6.07161 1 -7.29869 0.0582188 4
394 1 9.7772 2.63896 8.03629 1.48311 -0.902617 2.40833 1 -7.3207 0.00548631 4
395 1 12.5324 1.8034 7.16229 0.0215587 -1.16128 -0.901549 1 -7.38242 0.00134557 4
396 1 11.6379 0.870021 8.05694 -5.54597 -3.92695 -0.917087 1 -7.29954 0.0292663 4
397 1 10.6678 3.53922 7.11729 3.60396 -1.42883 4.52291 1 -7.29279 0.0220879 4
398 1 13.4094 0.908135 6.31179 -3.18716 2.66136 0.640342 1 -7.35459 0.0109863 4
399 1 13.4194 2.70353 4.44558 3.49635 -12.9073 0.814852 1 -7.34926 0.111718 4
400 1 14.2817 1.76713 5.35361 -8.13887 3.04005 -4.43198 1 -7.28662 0.0592087 4
401 1 15.1305 0.852605 4.4441 4.94778 1.15895 2.4642 1 -7.3556 0.0198529 4
402 1 15.2184 2.66586 6.24439 -1.35744 -4.32582 -5.03554 1 -7.27524 0.0285769 4
403 1 16.9439 0.891675 6.27573 -11.4602 6.78988 -3.10612 1 -7.32277 0.116448 4
404 1 16.9669 2.62496 4.4873 0.0227586 -0.636698 -2.36593 1 -7.30222 0.00373674 4
405 1 16.0831 3.56634 5.32956 -3.96809 -1.09627 -2.63098 1 -7.3846 0.014857 4
406 1 13.4217 2.64694 8.0483 7.30724 1.77586 -1.71324 1 -7.3172 0.0370248 4
407 1 16.1023 1.73858 7.15133 -6.05485 1.91722 -5.9533 1 -7.3331 0.0471667 4
408 1 15.1662 0.910218 8.04025 2.95491 5.5692 -1.62752 1 -7.37503 0.0263886 4
409 1 16.9929 2.67787 8.052 2.29361 -5.57574 0.330182 1 -7.31394 0.0226927 4
410 1 14.3377 3.55271 7.12226 -12.4996 3.98209 2.17116 1 -7.33468 0.110052 4
412 1 17.8469 1.77835 5.36329 -10.7276 4.78304 -5.80237 1 -7.34018 0.106825 4
413 1 18.6921 0.869923 4.43093 5.20191 -7.08659 2.02696 1 -7.31907 0.0506582 4
414 1 18.7276 2.69063 6.26305 2.86258 -5.25023 4.30345 1 -7.33397 0.0337846 4
415 1 20.5021 0.916386 6.21591 6.03716 -0.636294 -5.67686 1 -7.37036 0.0429965 4
416 1 20.5105 2.68146 4.48676 -0.321378 -3.21037 -6.83449 1 -7.37136 0.035553 4
417 1 19.585 3.56941 5.33724 0.345225 3.49698 5.28395 1 -7.34835 0.025064 4
418 1 19.6559 1.76766 7.15987 1.6401 0.219259 0.152456 1 -7.27569 0.00171867 4
419 1 18.7163 0.893922 8.05772 -9.18869 -0.590152 -3.80458 1 -7.3831 0.061779 4
420 1 20.5207 2.6761 8.12695 2.96767 5.95787 -3.22368 1 -7.27742 0.0340439 4
421 1 17.8243 3.57818 7.13359 1.03084 7.40621 0.00777868 1 -7.36694 0.0348027 4
423 1 0.878064 4.43349 4.46999 2.06139 -7.84068 1.49094 1 -7.30846 0.0422929 4
424 1 0.867645 6.25856 6.24312 -7.44177 0.177822 -2.15806 1 -7.26892 0.0373884 4
425 1 2.67378 4.46642 6.22781 2.81288 1.10027 0.0968834 1 -7.3711 0.00568416 4
426 1 2.66693 6.16434 4.48496 2.76268 -5.03223 -2.1583 1 -7.30122 0.023412 4
427 1 3.55763 5.34736 5.39727 -3.17124 3.27687 -5.65295 1 -7.42103 0.0328332 4
428 1 1.75938 7.12041 5.35256 -3.08485 -1.11124 -0.919917 1 -7.32841 0.00721853 4
429 1 0.893078 8.01326 4.40878 -0.260404 0.0386398 -7.92994 1 -7.32131 0.0391837 4
430 1 2.66322 7.97127 6.22668 -12.1345 0.542703 -2.89988 1 -7.25206 0.0970675 4
431 1 1.81704 5.37156 7.18911 -3.2782 -5.58816 -5.71871 1 -7.22899 0.0464814 4
432 1 0.887553 4.44918 8.07363 -1.38122 2.293 -2.68072 1 -7.33904 0.00893298 4
433 1 2.63984 6.25182 8.10726 4.01863 -5.24819 -1.08338 1 -7.34825 0.0279261 4
434 1 0.859295 8.00767 8.03009 5.70518 0.662555 -7.02082 1 -7.32197 0.0512132 4