ITEM: TIMESTEP
49125250
ITEM: NUMBER OF ATOMS
3060
ITEM: BOX BOUNDS pp pp mm
0.0000000000000000e+00 2.1394294200000001e+01
0.0000000000000000e+00 2.1394294200000001e+01
-5.3491084073550004e-03 5.3485735499999997e+01
ITEM: ATOMS id type x y z vx vy vz c_clusts c_atom_pe c_atom_ke c_atom_coord
1 1 0 0 0 0 0 0 1 -3.33532 0 2
2 1 1.78286 1.78286 0 0 0 0 1 -3.34302 0 2
3 1 0.891429 0.891429 0.891429 0 0 0 1 -7.0203 0 4
4 1 0.910487 2.63886 2.69846 4.52042 0.534385 -0.0759074 1 -7.32496 0.0129001 4
5 1 2.69033 0.895936 2.74957 7.72271 6.42262 2.8326 1 -7.20022 0.0677909 4
6 1 2.67429 2.67429 0.891429 0 0 0 1 -7.00121 0 4
7 1 3.56572 0 0 0 0 0 1 -3.33817 0 2
8 1 3.59572 1.8104 1.77358 4.62444 5.73139 6.53195 1 -7.31236 0.0603135 4
9 1 0 3.56572 0 0 0 0 1 -3.35566 0 2
10 1 1.78493 3.60043 1.77056 3.84557 5.17417 -3.78777 1 -7.27479 0.0347984 4
11 1 3.56572 3.56572 0 0 0 0 1 -3.3282 0 2
12 1 1.7659 1.76234 3.62798 -2.81641 2.85928 -7.88185 1 -7.38131 0.0486931 4
13 1 3.52405 3.55409 3.57325 2.82133 -10.4046 -0.734693 1 -7.33107 0.072671 4
292 1 1.79587 0.00968006 1.77892 5.33631 -0.933388 -3.27153 1 -7.29253 0.0249284 4
56 1 0.0681696 3.5612 3.60102 -5.19003 1.05006 -1.06367 1 -7.22866 0.0181565 4
14 1 5.34857 1.78286 0 0 0 0 1 -3.32873 0 2
15 1 4.45714 0.891429 0.891429 0 0 0 1 -7.00683 0 4
16 1 4.4669 2.7173 2.63981 6.1103 11.0893 -2.81227 1 -7.34022 0.104703 4
17 1 6.22948 0.910075 2.65278 9.17463 -0.390696 -9.9897 1 -7.28832 0.114602 4
18 1 6.24 2.67429 0.891429 0 0 0 1 -7.01721 0 4
19 1 7.13143 0 0 0 0 0 1 -3.34956 0 2
20 1 7.15501 1.7666 1.74996 -4.38882 -1.50078 2.95033 1 -7.33835 0.0188088 4
21 1 8.02286 0.891429 0.891429 0 0 0 1 -7.04096 0 4
22 1 8.07229 2.70291 2.65378 2.7381 -5.62167 -3.08321 1 -7.2929 0.030254 4
23 1 5.35944 3.57411 1.76708 3.27383 4.08127 -5.74302 1 -7.39494 0.0375678 4
24 1 7.13143 3.56572 0 0 0 0 1 -3.31269 0 2
25 1 5.36386 1.83457 3.54755 -3.43347 -3.47381 9.27577 1 -7.40307 0.0684022 4
26 1 7.15934 3.56294 3.60333 -7.81067 -5.24194 -4.06969 1 -7.23477 0.0653839 4
28 1 8.91429 1.78286 0 0 0 0 1 -3.31936 0 2
29 1 9.83984 0.911961 2.64595 -4.38086 -0.391774 4.03217 1 -7.35355 0.0221608 4
30 1 9.80572 2.67429 0.891429 0 0 0 1 -7.05584 0 4
31 1 10.6971 0 0 0 0 0 1 -3.323 0 2
32 1 10.7069 1.81215 1.76811 3.76335 -0.589683 -3.59565 1 -7.34173 0.0170789 4
33 1 12.48 1.78286 0 0 0 0 1 -3.31811 0 2
34 1 11.5886 0.891429 0.891429 0 0 0 1 -6.97462 0 4
35 1 11.6429 2.66672 2.70198 -3.2326 -4.28356 1.16321 1 -7.30685 0.0187672 4
36 1 8.91708 3.56774 1.77572 -9.58781 0.47386 -1.99095 1 -7.39463 0.0598242 4
37 1 10.6971 3.56572 0 0 0 0 1 -3.31149 0 2
38 1 12.4895 3.56039 1.77609 -1.39587 -4.64007 -8.11635 1 -7.3283 0.0556162 4
39 1 8.93278 1.78829 3.56764 -0.0467527 -6.74453 -3.38814 1 -7.35658 0.0354598 4
40 1 12.5311 1.73634 3.60351 1.87738 -4.45665 2.94375 1 -7.32288 0.01995 4
41 1 10.7416 3.57162 3.55616 -1.6965 1.40314 -2.02373 1 -7.29563 0.00556598 4
321 1 12.5243 -0.00749261 1.77347 -1.82309 -6.81454 2.01758 1 -7.34204 0.0335066 4
320 1 8.94655 0.0486461 1.75407 5.63129 -3.47579 -6.43642 1 -7.37301 0.0530431 4
319 1 10.6933 0.0110451 3.55411 1.42147 4.4107 -0.601923 1 -7.31836 0.013592 4
42 1 13.3884 0.914831 2.71548 -5.81258 4.57388 -1.00184 1 -7.38985 0.0346755 4
43 1 13.3714 2.67429 0.891429 0 0 0 1 -6.99839 0 4
44 1 14.2629 0 0 0 0 0 1 -3.32415 0 2
45 1 14.2868 1.78283 1.79485 5.09161 9.63758 3.4436 1 -7.35498 0.0813298 4
46 1 16.0457 1.78286 0 0 0 0 1 -3.32703 0 2
47 1 15.1543 0.891429 0.891429 0 0 0 1 -7.05075 0 4
48 1 15.1616 2.67235 2.68083 -3.12987 6.48424 -7.26534 1 -7.32352 0.0651223 4
49 1 16.9981 0.869514 2.67977 -0.521392 6.01148 -3.77464 1 -7.29803 0.0315307 4
50 1 16.9371 2.67429 0.891429 0 0 0 1 -7.03261 0 4
51 1 14.2629 3.56572 0 0 0 0 1 -3.32242 0 2
52 1 16.0342 3.56459 1.76982 -6.86268 5.46776 -1.92617 1 -7.36822 0.0502317 4
53 1 16.1166 1.78099 3.58035 7.0952 4.39004 0.323352 1 -7.28023 0.0433948 4
54 1 14.2703 3.54256 3.5962 -9.74453 -5.88632 1.31733 1 -7.40275 0.0817495 4
336 1 14.3042 0.0366104 3.57794 0.420493 6.35432 2.71656 1 -7.30961 0.0298353 4
350 1 21.3807 0.0152437 3.67558 0.86624 1.58853 0.634085 1 -7.34351 0.00228796 4
55 1 21.3971 1.78065 1.79517 4.60024 4.16655 -4.07445 1 -7.366 0.0343103 4
57 1 17.8286 0 0 0 0 0 1 -3.3408 0 2
58 1 17.8458 1.77753 1.78448 -0.98961 -2.19793 0.394036 1 -7.37405 0.00371307 4
59 1 19.6114 1.78286 0 0 0 0 1 -3.32621 0 2
60 1 18.72 0.891429 0.891429 0 0 0 1 -7.02699 0 4
61 1 18.7398 2.6523 2.67047 -11.1365 -1.93354 -2.58521 1 -7.34649 0.0836817 4
62 1 20.5295 0.88429 2.72625 -0.890032 -2.36541 -0.179919 1 -7.30867 0.00399578 4
63 1 20.5029 2.67429 0.891429 0 0 0 1 -7.02033 0 4
64 1 17.8286 3.56572 0 0 0 0 1 -3.33029 0 2
65 1 19.6014 3.56958 1.79246 -7.9682 2.61275 -3.66041 1 -7.38805 0.0521078 4
66 1 19.6184 1.76838 3.59263 3.73751 4.71796 -6.0298 1 -7.34865 0.0451798 4
67 1 17.8005 3.57437 3.5701 -8.80333 2.83831 -6.15588 1 -7.32312 0.0768382 4
68 1 19.6238 0.0193087 1.76133 -2.20862 2.27498 -2.1201 1 -7.33042 0.00905528 4
69 1 1.78286 5.34857 0 0 0 0 1 -3.33178 0 2
70 1 0.891429 4.45714 0.891429 0 0 0 1 -6.99202 0 4
71 1 0.923507 6.31573 2.75758 3.82089 3.18343 -1.59244 1 -7.31017 0.0169731 4
72 1 2.69295 4.5374 2.68432 -2.02472 6.427 -2.79502 1 -7.27158 0.0331242 4
73 1 2.67429 6.24 0.891429 0 0 0 1 -7.01754 0 4
74 1 3.62283 5.38705 1.76249 0.463411 -1.79206 -1.0897 1 -7.34797 0.00287167 4
75 1 0 7.13143 0 0 0 0 1 -3.34055 0 2
76 1 1.78016 7.13275 1.78772 -2.46476 -4.72287 4.13415 1 -7.33791 0.0283028 4
77 1 0.891429 8.02286 0.891429 0 0 0 1 -7.03475 0 4
78 1 2.69911 8.05162 2.67629 -4.12783 -7.20121 3.5111 1 -7.29644 0.0505561 4
79 1 3.56572 7.13143 0 0 0 0 1 -3.30842 0 2
80 1 1.80265 5.41903 3.58517 -5.70858 4.39983 -5.65913 1 -7.38928 0.0522665 4
81 1 3.56665 7.15449 3.6165 -3.21334 0.666829 -3.36668 1 -7.27091 0.0137585 4
128 1 0.00964015 5.39984 1.82011 0.155633 -0.296955 -4.81891 1 -7.23776 0.0145239 4
83 1 5.34857 5.34857 0 0 0 0 1 -3.30325 0 2
84 1 4.45714 4.45714 0.891429 0 0 0 1 -7.04143 0 4
85 1 4.46597 6.23555 2.67629 -2.68816 6.27216 5.38883 1 -7.30556 0.0470589 4
86 1 6.2076 4.43032 2.68622 -0.524211 -1.75847 6.50279 1 -7.30406 0.0284158 4
87 1 6.24 6.24 0.891429 0 0 0 1 -7.04019 0 4
88 1 7.11307 5.32729 1.77172 -3.46128 -3.40183 1.17446 1 -7.3126 0.0155185 4
89 1 8.02286 4.45714 0.891429 0 0 0 1 -7.02673 0 4
90 1 8.00811 6.18415 2.73583 1.27895 5.36249 -14.304 1 -7.3319 0.146268 4
91 1 5.36468 7.13545 1.77641 -4.99328 -2.2943 -0.750284 1 -7.36034 0.0191456 4
92 1 4.45714 8.02286 0.891429 0 0 0 1 -7.012 0 4
93 1 6.24593 8.0464 2.64073 14.5153 3.92 -2.80706 1 -7.34101 0.14561 4
94 1 7.13143 7.13143 0 0 0 0 1 -3.32683 0 2
95 1 8.02286 8.02286 0.891429 0 0 0 1 -7.02755 0 4
96 1 5.32948 5.34301 3.54603 4.09851 -3.88849 6.6364 1 -7.33636 0.0472794 4
97 1 7.15013 7.09428 3.57101 -2.92848 0.323199 5.31634 1 -7.29372 0.0229949 4
98 1 8.91429 5.34857 0 0 0 0 1 -3.31654 0 2
99 1 9.768 4.47285 2.67293 2.52214 2.98565 -0.594505 1 -7.36351 0.00972774 4
100 1 9.80572 6.24 0.891429 0 0 0 1 -6.9856 0 4
101 1 10.6618 5.34516 1.75756 2.33944 5.24499 -0.795603 1 -7.32909 0.0209234 4
102 1 12.48 5.34857 0 0 0 0 1 -3.32588 0 2
103 1 11.5886 4.45714 0.891429 0 0 0 1 -7.03647 0 4
104 1 11.6003 6.22865 2.64366 -0.836736 -1.70969 2.10995 1 -7.37368 0.00502613 4
105 1 8.86417 7.10112 1.8047 -8.4321 2.46416 -1.43734 1 -7.28772 0.04932 4
106 1 9.8128 7.9907 2.67964 -3.22556 -1.83713 -3.61625 1 -7.31665 0.0167162 4
107 1 10.6971 7.13143 0 0 0 0 1 -3.33753 0 2
108 1 12.4788 7.10728 1.75927 -1.82787 7.98061 -7.79856 1 -7.38953 0.0795765 4
109 1 11.5886 8.02286 0.891429 0 0 0 1 -6.99731 0 4
110 1 8.93974 5.34194 3.60701 2.3578 -0.469931 -0.310514 1 -7.39861 0.00365768 4
111 1 12.4785 5.36205 3.55864 6.40895 -3.31788 -3.67062 1 -7.27455 0.040804 4
112 1 10.6997 7.10183 3.56613 -0.999996 -5.89573 -0.412967 1 -7.35164 0.0223639 4
113 1 13.4126 4.41612 2.69403 -3.00648 9.85562 2.28803 1 -7.24333 0.0693428 4
114 1 13.3714 6.24 0.891429 0 0 0 1 -7.07178 0 4
115 1 14.2592 5.36113 1.74626 8.28535 -5.92 -1.19223 1 -7.29754 0.0654262 4
116 1 16.0457 5.34857 0 0 0 0 1 -3.33333 0 2
117 1 15.1543 4.45714 0.891429 0 0 0 1 -7.01047 0 4
118 1 15.2007 6.21802 2.68691 -1.66179 -8.8138 6.59406 1 -7.28785 0.0771349 4
119 1 16.9271 4.4507 2.68485 0.441898 -3.59283 3.69666 1 -7.33257 0.0166617 4
120 1 16.9371 6.24 0.891429 0 0 0 1 -7.01932 0 4
121 1 13.3739 8.03655 2.63771 -1.18138 -4.43391 -9.81303 1 -7.25693 0.0730422 4
122 1 14.2629 7.13143 0 0 0 0 1 -3.34083 0 2
123 1 16.0771 7.14851 1.75193 2.7212 -4.50528 -4.58589 1 -7.37146 0.0303326 4
124 1 15.1543 8.02286 0.891429 0 0 0 1 -7.02482 0 4
125 1 16.9224 8.00669 2.62258 0.154421 -5.91676 -4.13075 1 -7.26027 0.0324253 4
126 1 16.0189 5.32942 3.60385 6.68219 4.98917 -6.41833 1 -7.36337 0.0689265 4
127 1 14.3048 7.09734 3.58127 3.85936 -6.54965 -2.67996 1 -7.23972 0.040442 4
82 1 21.3659 7.16388 3.60572 1.92638 0.126702 3.61551 1 -7.35303 0.0104561 4
129 1 17.8186 5.34609 1.78957 0.00648839 5.8852 -1.72561 1 -7.37858 0.0234115 4
130 1 19.6114 5.34857 0 0 0 0 1 -3.34138 0 2
131 1 18.72 4.45714 0.891429 0 0 0 1 -7.01966 0 4
132 1 18.7208 6.23231 2.68164 -0.782889 0.43772 4.09453 1 -7.31497 0.0109358 4
133 1 20.495 4.46819 2.69561 0.0535719 4.08212 4.0023 1 -7.26147 0.020344 4
134 1 20.5029 6.24 0.891429 0 0 0 1 -6.98457 0 4
135 1 17.8286 7.13143 0 0 0 0 1 -3.31363 0 2
136 1 19.5607 7.11711 1.7808 -1.79438 -4.98645 5.44984 1 -7.35963 0.0359671 4
137 1 18.72 8.02286 0.891429 0 0 0 1 -7.03871 0 4
138 1 20.4894 8.01082 2.67143 5.03698 -2.84364 6.89199 1 -7.33465 0.0503897 4
139 1 19.6225 5.36674 3.61717 3.54148 5.36855 -2.27902 1 -7.38561 0.0289785 4
140 1 17.8347 7.13358 3.58323 -2.5895 3.6121 -2.20986 1 -7.34488 0.0153343 4
141 1 1.78286 8.91429 0 0 0 0 1 -3.33644 0 2
142 1 0.907837 9.76283 2.70134 -3.24306 -0.439955 4.57034 1 -7.31838 0.0196681 4
143 1 2.67429 9.80572 0.891429 0 0 0 1 -7.04361 0 4
144 1 3.54667 8.92217 1.76241 3.34891 -4.36435 3.02049 1 -7.36606 0.024515 4
145 1 0 10.6971 0 0 0 0 1 -3.33357 0 2
146 1 1.78372 10.6953 1.78967 5.44767 0.249091 -10.2807 1 -7.32694 0.0842965 4
147 1 1.78286 12.48 0 0 0 0 1 -3.32161 0 2
148 1 0.891429 11.5886 0.891429 0 0 0 1 -7.03026 0 4
149 1 2.65467 11.5873 2.70151 15.5011 0.913318 1.42008 1 -7.37995 0.151334 4
150 1 3.56572 10.6971 0 0 0 0 1 -3.33129 0 2
151 1 3.54165 12.4968 1.79383 -5.3234 1.53696 -0.748094 1 -7.27742 0.0194573 4
152 1 1.84329 8.92144 3.59615 -7.92964 -4.40007 -2.82389 1 -7.34269 0.0561517 4
153 1 1.74658 12.4789 3.57046 1.02734 0.147488 -11.5472 1 -7.29624 0.0836636 4
154 1 3.56911 10.6892 3.5722 3.8541 0.225466 6.58532 1 -7.34918 0.0362697 4
205 1 0.021523 8.88733 1.77539 7.79864 -5.71945 -1.6322 1 -7.35727 0.0598743 4
204 1 0.0274687 12.5029 1.75508 12.8013 -1.76385 -1.01066 1 -7.34143 0.104571 4
155 1 5.34857 8.91429 0 0 0 0 1 -3.33187 0 2
156 1 4.44562 9.78571 2.70717 -2.2653 -3.77826 2.57568 1 -7.32378 0.0162086 4
157 1 6.24 9.80572 0.891429 0 0 0 1 -7.02383 0 4
158 1 7.13874 8.92314 1.77505 2.75339 2.89997 7.88038 1 -7.36259 0.0486061 4
159 1 8.04075 9.81018 2.70215 9.85845 3.79183 -4.27451 1 -7.2592 0.0808149 4
160 1 5.36254 10.6619 1.81248 1.56354 -3.74458 -3.85614 1 -7.31148 0.0195046 4
161 1 5.34857 12.48 0 0 0 0 1 -3.35417 0 2
162 1 4.45714 11.5886 0.891429 0 0 0 1 -6.95806 0 4
163 1 6.25014 11.6005 2.67969 5.23132 -0.139212 -9.91367 1 -7.31704 0.0782184 4
164 1 7.13143 10.6971 0 0 0 0 1 -3.34812 0 2
165 1 7.13527 12.4837 1.79936 7.11137 4.09113 -1.138 1 -7.36875 0.0427009 4
166 1 8.02286 11.5886 0.891429 0 0 0 1 -7.05246 0 4
167 1 5.39008 8.87021 3.565 5.48892 3.31461 0.569656 1 -7.35676 0.025793 4
168 1 5.29578 12.4831 3.60182 0.519327 -5.56663 -4.39147 1 -7.28952 0.0314587 4
169 1 7.15969 10.729 3.62258 -5.12756 1.42084 6.56839 1 -7.30227 0.0444751 4
170 1 8.91429 8.91429 0 0 0 0 1 -3.33475 0 2
171 1 9.80572 9.80572 0.891429 0 0 0 1 -6.98305 0 4
172 1 10.6689 8.90098 1.78613 3.15349 -8.21975 4.15917 1 -7.3828 0.0590107 4
173 1 12.48 8.91429 0 0 0 0 1 -3.33939 0 2
174 1 11.5658 9.79913 2.70033 -4.25025 -1.85504 -3.61139 1 -7.36911 0.0215035 4
175 1 8.86916 10.7388 1.78173 -4.07851 -1.94089 0.444696 1 -7.25171 0.0128214 4
176 1 8.91429 12.48 0 0 0 0 1 -3.34018 0 2
177 1 9.80653 11.5994 2.72225 -5.01974 2.04428 7.62672 1 -7.25806 0.0544895 4
178 1 10.6971 10.6971 0 0 0 0 1 -3.33108 0 2
179 1 10.6989 12.4977 1.78278 -2.14438 5.92696 -6.57745 1 -7.33439 0.0516551 4
180 1 12.4586 10.6749 1.77219 -3.3622 3.65005 0.389375 1 -7.36152 0.015423 4
181 1 12.48 12.48 0 0 0 0 1 -3.32036 0 2
182 1 11.5886 11.5886 0.891429 0 0 0 1 -7.03125 0 4
183 1 8.94259 8.88486 3.62859 -0.24437 3.14585 0.397856 1 -7.28719 0.00629546 4
184 1 12.4751 8.92847 3.57838 -6.89617 1.11398 -9.94574 1 -7.32691 0.0919422 4
185 1 8.88787 12.5027 3.58142 -7.27551 -0.698239 5.76295 1 -7.29475 0.0539221 4
186 1 10.6962 10.6337 3.57832 -1.11141 -0.8205 3.63336 1 -7.39101 0.00940472 4
187 1 12.4567 12.4689 3.55673 7.29747 -6.81955 2.94346 1 -7.36429 0.0674854 4
188 1 13.3714 9.80572 0.891429 0 0 0 1 -7.01841 0 4
189 1 14.2754 8.952 1.75891 -3.17092 -7.91926 2.63073 1 -7.38021 0.0496013 4
190 1 16.0457 8.91429 0 0 0 0 1 -3.31906 0 2
191 1 15.1609 9.85561 2.64489 2.22224 3.76595 0.588865 1 -7.31302 0.0121171 4
192 1 16.9371 9.80572 0.891429 0 0 0 1 -7.0055 0 4
193 1 13.3457 11.5415 2.66368 3.34342 -5.44177 -1.78726 1 -7.27116 0.0273778 4
194 1 14.2629 10.6971 0 0 0 0 1 -3.32705 0 2
195 1 14.2252 12.4569 1.73882 0.0194804 3.30209 5.41087 1 -7.30275 0.0250102 4
196 1 16.0869 10.7554 1.77152 -5.5796 0.720846 -2.89725 1 -7.36798 0.0249254 4
197 1 16.0457 12.48 0 0 0 0 1 -3.32478 0 2
198 1 15.1543 11.5886 0.891429 0 0 0 1 -7.00174 0 4
199 1 16.9573 11.6136 2.65896 -0.547831 -0.832929 4.04586 1 -7.37342 0.0108071 4
200 1 16.0631 8.92464 3.5634 0.254363 4.61119 8.62289 1 -7.28481 0.0595549 4
201 1 14.2953 10.6557 3.56962 4.14064 2.27276 8.20029 1 -7.29108 0.0557415 4
202 1 16.0512 12.4709 3.52923 -6.19014 7.42843 -3.74227 1 -7.32802 0.0669133 4
203 1 21.3718 10.6766 3.5533 0.143905 -2.3856 -3.85958 1 -7.29095 0.012827 4
206 1 17.8426 8.92907 1.72758 -2.93079 1.25963 2.00135 1 -7.31928 0.00882698 4
207 1 19.6114 8.91429 0 0 0 0 1 -3.31869 0 2
208 1 18.6951 9.80343 2.65431 9.50377 5.84507 -5.48497 1 -7.315 0.0962093 4
209 1 20.5029 9.80572 0.891429 0 0 0 1 -7.01477 0 4
210 1 17.8286 10.6971 0 0 0 0 1 -3.30126 0 2
211 1 17.8773 12.5334 1.7362 0.785017 -1.84894 0.105259 1 -7.32845 0.00251828 4
212 1 19.601 10.6906 1.72431 -4.11478 2.12409 2.62154 1 -7.34234 0.0176244 4
213 1 19.6114 12.48 0 0 0 0 1 -3.322 0 2
214 1 18.72 11.5886 0.891429 0 0 0 1 -7.01125 0 4
215 1 20.4828 11.5776 2.62192 1.5917 -1.95592 -6.04605 1 -7.29048 0.0267107 4
216 1 19.6374 8.91868 3.52002 6.96018 6.02891 -1.48035 1 -7.35374 0.0541406 4
217 1 17.7982 10.7443 3.53117 -6.26163 2.65255 0.208342 1 -7.36822 0.0288105 4
218 1 19.6321 12.4945 3.55614 6.22126 -0.376183 -4.30477 1 -7.30775 0.0357128 4
219 1 0.873073 13.3806 2.6516 0.0708539 -2.13011 0.271259 1 -7.3744 0.00287309 4
220 1 2.67429 13.3714 0.891429 0 0 0 1 -7.03351 0 4
221 1 0 14.2629 0 0 0 0 1 -3.2946 0 2
222 1 1.78312 14.256 1.76239 4.47322 -4.05146 -1.2974 1 -7.3487 0.0237189 4
223 1 1.78286 16.0457 0 0 0 0 1 -3.31809 0 2
224 1 0.891429 15.1543 0.891429 0 0 0 1 -7.04987 0 4
225 1 0.865619 16.9197 2.67991 1.21928 5.41363 -0.0647158 1 -7.33053 0.0191696 4
226 1 2.66755 15.1383 2.69096 -0.771546 1.12516 -3.25396 1 -7.3715 0.00774891 4
227 1 2.67429 16.9371 0.891429 0 0 0 1 -7.0117 0 4
228 1 3.56572 14.2629 0 0 0 0 1 -3.34039 0 2
229 1 3.56759 16.0354 1.75311 5.94994 3.9105 6.05067 1 -7.36024 0.0543405 4
230 1 1.79308 16.0446 3.54919 -1.69775 9.02027 0.528349 1 -7.40515 0.0526117 4
231 1 3.53511 14.2905 3.58048 -4.19167 8.16732 -5.90127 1 -7.36786 0.0741311 4
233 1 0.00165081 16.0259 1.74474 5.61077 3.34795 0.886365 1 -7.32897 0.0270601 4
232 1 0.0112511 14.2949 3.53475 0.13812 2.1419 -0.530971 1 -7.40443 0.00304289 4
234 1 4.46678 13.4362 2.70954 4.56656 1.78271 -1.41889 1 -7.2593 0.0162109 4
235 1 6.24 13.3714 0.891429 0 0 0 1 -7.04788 0 4
236 1 8.00103 13.3882 2.7066 8.21449 -2.4876 -3.29576 1 -7.3784 0.0526124 4
237 1 5.40545 14.2703 1.76724 0.764671 -5.60985 0.398485 1 -7.34438 0.0200508 4
238 1 5.34857 16.0457 0 0 0 0 1 -3.31998 0 2
239 1 4.45714 15.1543 0.891429 0 0 0 1 -6.99563 0 4
240 1 4.46997 16.9265 2.6398 -0.534077 -5.2405 3.69514 1 -7.31614 0.0257698 4
241 1 6.25037 15.1739 2.70912 -4.37751 1.76219 -9.24336 1 -7.29819 0.06704 4
242 1 6.24 16.9371 0.891429 0 0 0 1 -7.02556 0 4
243 1 7.13143 14.2629 0 0 0 0 1 -3.33424 0 2
244 1 7.16505 16.0617 1.78069 -3.33229 1.47376 -4.0419 1 -7.29166 0.018432 4
245 1 8.02286 15.1543 0.891429 0 0 0 1 -7.04361 0 4
246 1 8.04883 16.9581 2.65858 -0.512846 2.82196 -4.54638 1 -7.39062 0.0179856 4
247 1 5.38617 16.0985 3.55785 -6.55732 -2.06351 2.7779 1 -7.36368 0.0342168 4
248 1 7.14381 14.2577 3.62406 7.40346 -0.186808 -0.80203 1 -7.29317 0.034538 4
249 1 9.80572 13.3714 0.891429 0 0 0 1 -7.03038 0 4
250 1 11.5737 13.3634 2.69575 -0.594333 5.24848 -5.75619 1 -7.32792 0.0379888 4
251 1 8.88576 14.2844 1.77738 4.7458 8.81969 2.84315 1 -7.30978 0.0674667 4
252 1 8.91429 16.0457 0 0 0 0 1 -3.33079 0 2
253 1 9.76584 15.1514 2.71257 8.95238 4.9181 -3.71691 1 -7.30011 0.0735386 4
254 1 9.80572 16.9371 0.891429 0 0 0 1 -7.02383 0 4
255 1 10.6971 14.2629 0 0 0 0 1 -3.33638 0 2
256 1 10.6919 16.06 1.78142 -9.40072 -0.691429 -2.14305 1 -7.35337 0.0581622 4
257 1 12.4695 14.3012 1.77241 -0.125521 1.38086 5.47583 1 -7.33465 0.0198599 4
258 1 12.48 16.0457 0 0 0 0 1 -3.32208 0 2
259 1 11.5886 15.1543 0.891429 0 0 0 1 -7.05512 0 4
260 1 11.5362 16.9186 2.6641 -5.04905 -1.65216 -3.54739 1 -7.31033 0.0253991 4
261 1 8.84637 16.0294 3.53925 7.61656 0.477392 6.38827 1 -7.30971 0.0616513 4
262 1 10.638 14.2245 3.60439 7.7158 -1.71075 3.2996 1 -7.3499 0.0456534 4
263 1 12.5127 16.0409 3.53148 7.61576 -4.55397 4.05472 1 -7.23311 0.059242 4
264 1 13.3714 13.3714 0.891429 0 0 0 1 -6.98716 0 4
265 1 15.1389 13.3764 2.67399 4.52286 -1.08145 -2.44019 1 -7.30978 0.0171668 4
266 1 16.9371 13.3714 0.891429 0 0 0 1 -7.0199 0 4
267 1 13.395 15.1088 2.63382 -8.75444 -3.98244 1.38978 1 -7.33815 0.0587767 4
268 1 13.3714 16.9371 0.891429 0 0 0 1 -7.05015 0 4
269 1 14.2629 14.2629 0 0 0 0 1 -3.32094 0 2
270 1 14.2694 16.0294 1.744 -6.58993 -0.471916 4.91282 1 -7.29792 0.0421916 4
271 1 16.0232 14.2512 1.78636 6.27346 2.36693 -3.09624 1 -7.35137 0.0339505 4
272 1 16.0457 16.0457 0 0 0 0 1 -3.34654 0 2
273 1 15.1543 15.1543 0.891429 0 0 0 1 -7.01019 0 4
274 1 15.1487 16.931 2.72566 -0.699556 2.46651 0.920398 1 -7.24713 0.0046185 4
275 1 16.8886 15.1833 2.68962 1.63905 -5.68418 -1.51951 1 -7.35865 0.0232198 4
276 1 16.9371 16.9371 0.891429 0 0 0 1 -7.0332 0 4
277 1 14.285 14.2289 3.51491 1.8014 2.88171 2.14965 1 -7.36001 0.0100648 4
278 1 16.0262 16.0369 3.56024 6.13307 -7.42046 -2.15052 1 -7.3647 0.0605636 4
279 1 18.7504 13.4163 2.63424 1.71408 4.8846 3.69194 1 -7.32824 0.0251633 4
280 1 20.5029 13.3714 0.891429 0 0 0 1 -7.00149 0 4
281 1 17.8286 14.2629 0 0 0 0 1 -3.31746 0 2
282 1 17.7939 16.059 1.77846 6.4824 6.64754 3.22445 1 -7.34285 0.0601316 4
283 1 19.6589 14.2951 1.77257 -2.18353 6.72989 1.16335 1 -7.32036 0.0320005 4
284 1 19.6114 16.0457 0 0 0 0 1 -3.30118 0 2
285 1 18.72 15.1543 0.891429 0 0 0 1 -6.99235 0 4
286 1 18.6935 16.9861 2.65162 3.60543 -3.46689 -5.78432 1 -7.35377 0.0363974 4
287 1 20.56 15.2114 2.65468 2.22104 -4.60721 -5.72899 1 -7.28294 0.0367112 4
288 1 20.5029 16.9371 0.891429 0 0 0 1 -7.05941 0 4
289 1 17.8093 14.2752 3.54913 0.339584 -3.31662 -2.68354 1 -7.33477 0.0114008 4
290 1 19.5788 16.0872 3.55406 -2.90415 7.91243 -0.556884 1 -7.31133 0.0444106 4
291 1 3.61115 21.3812 3.64487 0.782707 5.2737 4.69569 1 -7.2967 0.0314164 4
293 1 0 17.8286 0 0 0 0 1 -3.32471 0 2
294 1 1.75191 17.8243 1.77787 -1.0328 5.16645 -4.70753 1 -7.34819 0.0310713 4
295 1 1.78286 19.6114 0 0 0 0 1 -3.33495 0 2
296 1 0.891429 18.72 0.891429 0 0 0 1 -7.00315 0 4
297 1 0.885351 20.5154 2.7093 -0.808992 7.35367 5.34695 1 -7.22282 0.0518611 4
298 1 2.67198 18.7314 2.65433 -4.61902 -1.75729 -3.09215 1 -7.36789 0.021153 4
299 1 2.67429 20.5029 0.891429 0 0 0 1 -7.03492 0 4
300 1 3.56572 17.8286 0 0 0 0 1 -3.31766 0 2
301 1 3.51312 19.6198 1.76958 0.232294 7.76294 9.44302 1 -7.37229 0.0930451 4
302 1 1.79813 19.6138 3.56948 3.23981 -1.3381 -8.28873 1 -7.36519 0.0504103 4
303 1 3.52661 17.8353 3.55725 -5.7987 6.41078 2.80042 1 -7.36709 0.0513909 4
27 1 5.31506 21.3718 1.77843 -2.51916 -9.06893 4.82338 1 -7.3575 0.0696225 4
306 1 7.1241 21.3702 3.58031 1.79162 1.44597 5.10494 1 -7.2765 0.01952 4
307 1 5.34866 17.8184 1.76723 -7.43548 4.60465 -2.13811 1 -7.30412 0.0504543 4
308 1 5.34857 19.6114 0 0 0 0 1 -3.32945 0 2
309 1 4.45714 18.72 0.891429 0 0 0 1 -6.98921 0 4
310 1 4.41207 20.5402 2.67771 0.856015 -1.21526 0.871393 1 -7.32512 0.00184795 4
311 1 6.22645 18.7872 2.70645 6.43924 3.46207 -0.703982 1 -7.25888 0.033577 4
312 1 6.24 20.5029 0.891429 0 0 0 1 -7.02623 0 4
313 1 7.13143 17.8286 0 0 0 0 1 -3.32383 0 2
314 1 7.13043 19.6383 1.77149 -1.88285 0.354984 2.11963 1 -7.33234 0.00508148 4
315 1 8.02286 18.72 0.891429 0 0 0 1 -7.02059 0 4
316 1 8.05199 20.5484 2.6804 4.24542 -7.06407 -8.26556 1 -7.28112 0.084802 4
317 1 5.31032 19.6509 3.59415 -4.06985 1.77472 0.114934 1 -7.33215 0.0122783 4
318 1 7.12182 17.8329 3.57756 -0.457019 -1.21094 1.8652 1 -7.28421 0.00320811 4
322 1 8.91303 17.8206 1.78173 -9.21787 -2.19103 -3.9482 1 -7.4005 0.0655776 4
323 1 8.91429 19.6114 0 0 0 0 1 -3.33297 0 2
324 1 9.80447 18.738 2.65123 -1.78662 -6.92896 1.66349 1 -7.32777 0.0335921 4
325 1 9.80572 20.5029 0.891429 0 0 0 1 -7.0311 0 4
326 1 10.6971 17.8286 0 0 0 0 1 -3.32595 0 2
327 1 10.6672 19.622 1.75762 -1.35799 -0.101198 -3.15566 1 -7.35276 0.00735245 4
328 1 12.496 17.8215 1.77561 -2.54215 4.19784 -6.13694 1 -7.30342 0.0384325 4
329 1 12.48 19.6114 0 0 0 0 1 -3.34067 0 2
330 1 11.5886 18.72 0.891429 0 0 0 1 -6.97522 0 4
331 1 11.6047 20.5126 2.6677 12.7132 -2.03775 -1.19062 1 -7.3137 0.104066 4
332 1 8.89949 19.6563 3.58581 3.29442 0.828596 -1.89562 1 -7.31722 0.00941928 4
333 1 10.6891 17.8431 3.55598 9.06124 1.09042 0.802606 1 -7.30666 0.052246 4
334 1 12.4942 19.577 3.53454 -3.41602 -3.17283 1.17168 1 -7.29276 0.0143836 4
335 1 16.0508 21.3831 1.76161 0.0290455 0.103287 2.72137 1 -7.29913 0.00461675 4
337 1 13.3811 18.7563 2.66754 -3.43531 -3.87783 -3.30557 1 -7.36803 0.0235063 4
338 1 13.3714 20.5029 0.891429 0 0 0 1 -7.04818 0 4
339 1 14.2629 17.8286 0 0 0 0 1 -3.33593 0 2
340 1 14.2768 19.6286 1.76578 -3.73433 -2.25892 -3.88411 1 -7.36554 0.021246 4
341 1 16.0888 17.8329 1.76297 -4.58991 -1.99561 0.829426 1 -7.27256 0.0160198 4
342 1 16.0457 19.6114 0 0 0 0 1 -3.31074 0 2
343 1 15.1543 18.72 0.891429 0 0 0 1 -7.01269 0 4
344 1 15.1661 20.51 2.70854 4.76147 -5.53138 -3.17494 1 -7.32355 0.0394295 4
345 1 16.9278 18.7575 2.67856 -7.58569 -1.10519 -3.14015 1 -7.31887 0.0427137 4
346 1 16.9371 20.5029 0.891429 0 0 0 1 -7.02176 0 4
347 1 14.287 17.8526 3.55593 2.66048 3.83281 -0.653524 1 -7.32538 0.0138152 4
348 1 16.0891 19.6259 3.60103 -6.68619 -5.60952 -0.451248 1 -7.39812 0.0475381 4
349 1 17.8525 21.3403 3.61062 1.97671 0.0115477 1.14138 1 -7.36005 0.00324299 4
304 1 21.3437 17.8186 3.54204 -2.39839 -5.3663 3.07441 1 -7.33981 0.0273877 4
305 1 21.347 19.6367 1.75233 1.10679 -3.91462 3.42388 1 -7.32737 0.0175973 4
351 1 17.8286 17.8286 0 0 0 0 1 -3.31796 0 2
352 1 17.8223 19.6209 1.77694 3.66727 -1.42624 -6.61363 1 -7.36298 0.036862 4
353 1 19.6105 17.7805 1.77954 -1.40185 5.43227 2.60775 1 -7.32388 0.0238234 4
354 1 19.6114 19.6114 0 0 0 0 1 -3.33672 0 2
355 1 18.72 18.72 0.891429 0 0 0 1 -6.97679 0 4
356 1 18.7176 20.5112 2.68574 -3.81055 4.23183 -10.5868 1 -7.31763 0.0899467 4
357 1 20.4886 18.7345 2.66878 7.59125 -2.54726 -1.88 1 -7.3336 0.0421071 4
358 1 20.5029 20.5029 0.891429 0 0 0 1 -7.04653 0 4
359 1 17.8236 17.8409 3.5643 -3.098 -5.44959 8.56676 1 -7.35351 0.070138 4
360 1 19.5893 19.6262 3.55953 7.92254 0.191664 4.62106 1 -7.34741 0.0523818 4
361 1 0.894792 0.884343 4.53917 -0.809827 -0.57189 4.88047 1 -7.36574 0.0154374 4
362 1 0.962891 2.66228 6.29369 -7.7105 3.32955 -0.937931 1 -7.37705 0.0444521 4
363 1 2.70199 0.913419 6.28474 1.22795 -0.0275962 4.65695 1 -7.32531 0.0144377 4
364 1 2.64399 2.67568 4.47908 -0.897667 -5.12566 -2.82557 1 -7.31227 0.0218235 4
365 1 3.59499 1.74277 5.35335 2.16484 -6.2147 12.1508 1 -7.29516 0.118853 4
366 1 1.83282 3.52515 5.41769 3.24895 1.04438 5.8511 1 -7.28282 0.028558 4
367 1 1.81266 1.78387 7.19222 4.78953 -0.63441 3.80262 1 -7.32661 0.023529 4
368 1 0.885013 0.8909 8.05529 -0.996562 4.88406 -3.33768 1 -7.37497 0.0223994 4
369 1 2.73726 2.73106 8.07036 3.97023 -7.62887 6.62804 1 -7.26516 0.0733799 4
370 1 3.6198 3.59502 7.14225 -1.41279 2.21234 9.19935 1 -7.29866 0.0569635 4
411 1 0.017159 1.81945 5.41624 -4.23421 -1.67606 -1.83265 1 -7.33803 0.0149982 4
371 1 0.0417675 3.60909 7.14441 4.90105 4.88913 -0.870663 1 -7.31366 0.0303009 4
651 1 3.61248 0.00691605 7.16183 5.11963 3.97929 -3.84782 1 -7.29688 0.0353855 4
372 1 4.4829 0.940959 4.45279 7.54185 -5.41604 -6.2765 1 -7.35486 0.0781814 4
373 1 4.47249 2.67278 6.22508 8.58171 -3.11899 -1.90709 1 -7.28285 0.0541578 4
374 1 6.29856 0.892322 6.27433 -1.44348 -3.66424 0.736159 1 -7.31039 0.00999135 4
375 1 6.23923 2.67074 4.46076 3.55492 -2.91448 -2.90356 1 -7.38982 0.0184004 4
376 1 7.12193 1.76959 5.32329 -3.8511 -0.281808 -2.78128 1 -7.3036 0.0140954 4
377 1 8.04893 0.891774 4.41244 10.5873 3.43283 -0.0832323 1 -7.36652 0.0771071 4
378 1 8.04815 2.66949 6.26983 3.22978 -1.70087 3.02554 1 -7.25123 0.0139911 4
379 1 5.35817 3.5899 5.34563 -2.4969 -1.92754 -2.26592 1 -7.35957 0.00938887 4
380 1 5.35196 1.79142 7.16377 4.00154 -5.99094 0.983998 1 -7.30554 0.0329088 4
381 1 4.46215 0.90277 8.02852 1.17485 -0.584639 3.91707 1 -7.33238 0.0106221 4
382 1 6.25965 2.73944 8.01961 -11.2435 -1.32897 3.69559 1 -7.34971 0.0882854 4
383 1 8.09462 0.902912 8.06975 -7.92743 3.39812 1.22353 1 -7.30832 0.0472349 4
384 1 7.12765 3.56207 7.13673 -5.93378 4.93529 -5.63527 1 -7.3683 0.0568419 4
665 1 7.18468 0.00935054 7.14923 4.38689 -0.371896 -1.05827 1 -7.36829 0.0127616 4
385 1 5.3421 0.0172789 5.39118 0.290518 -5.50418 -10.8185 1 -7.25329 0.0917585 4
386 1 9.81178 0.89098 6.31741 0.0827641 3.16168 -2.54199 1 -7.32228 0.0102481 4
387 1 9.82262 2.68134 4.47431 -4.88049 -4.11528 -4.75388 1 -7.34864 0.0394332 4
388 1 10.6713 1.76417 5.40097 -2.71897 -3.81806 -1.51501 1 -7.35495 0.0151035 4
389 1 11.5818 0.870346 4.53125 -0.341865 -4.45594 1.02691 1 -7.31219 0.0130876 4
390 1 11.5795 2.66061 6.27628 -1.9288 3.74191 0.785937 1 -7.32131 0.0114152 4
391 1 8.97615 3.59716 5.34034 -1.16529 -5.43175 1.30953 1 -7.28616 0.0202766 4
392 1 12.4848 3.57774 5.36249 9.98185 -0.557394 0.421393 1 -7.40244 0.0623208 4
393 1 8.96742 1.77862 7.18038 0.91179 6.7291 -1.34892 1 -7.34224 0.029834 4
394 1 9.83242 2.7058 8.09173 1.16796 3.8909 8.87753 1 -7.33263 0.0593258 4
395 1 12.4714 1.75892 7.15352 0.96587 8.78038 -6.70829 1 -7.38421 0.0765765 4
396 1 11.5719 0.868194 8.0236 -3.33021 -2.93003 -5.17588 1 -7.28395 0.0289211 4
397 1 10.6983 3.56767 7.14636 5.20287 -5.68098 7.99968 1 -7.35868 0.0767689 4
679 1 8.92268 0.0202294 5.3421 -0.452671 -5.66759 2.92672 1 -7.25831 0.0254524 4
398 1 13.3654 0.839625 6.26844 -0.702647 1.49046 0.733727 1 -7.34304 0.00202509 4
399 1 13.3642 2.6999 4.49047 1.77997 0.363606 -1.59389 1 -7.32125 0.00363557 4
400 1 14.2555 1.7575 5.39228 0.00931444 -1.93481 -7.63854 1 -7.30116 0.038647 4
401 1 15.1996 0.896339 4.49646 5.33871 6.29367 1.22776 1 -7.3133 0.043333 4
402 1 15.0858 2.69396 6.28455 -3.56493 0.274238 4.12437 1 -7.3397 0.0185448 4
403 1 16.9367 0.919973 6.29954 -4.85466 -4.3301 2.26233 1 -7.37608 0.0295252 4
404 1 16.9463 2.71748 4.49804 2.51812 2.53198 -4.45968 1 -7.32154 0.0203164 4
405 1 16.03 3.55639 5.40571 1.01658 1.17796 -3.14332 1 -7.3846 0.00765676 4
406 1 13.3459 2.64306 8.06403 1.94204 -4.27182 6.05097 1 -7.32592 0.0364954 4
407 1 16.0331 1.80152 7.18489 3.17023 -12.3409 -1.25257 1 -7.27213 0.102026 4
408 1 15.133 0.89087 8.02346 1.91835 -1.41744 -0.774775 1 -7.39944 0.00391475 4
409 1 16.9707 2.69515 8.09403 2.30409 11.3405 -1.57448 1 -7.38702 0.0848961 4
410 1 14.2654 3.58428 7.14358 6.0715 -0.250648 8.57947 1 -7.32506 0.0687987 4
694 1 16.0879 0.00784967 5.41182 3.88541 -1.54195 2.27245 1 -7.33219 0.0140905 4
412 1 17.8537 1.82249 5.39021 -3.33954 3.08514 -10.4103 1 -7.34196 0.0803205 4
413 1 18.7183 0.898914 4.47554 2.81645 2.34046 -4.36692 1 -7.3047 0.0202165 4
414 1 18.7446 2.71745 6.28027 -0.972312 -6.18972 4.54995 1 -7.32347 0.0373208 4
415 1 20.5458 0.897185 6.30742 0.365824 6.20355 3.24496 1 -7.36589 0.0305908 4
416 1 20.5115 2.68375 4.51871 7.25407 3.26515 -4.98995 1 -7.34807 0.054887 4
417 1 19.618 3.59389 5.34673 0.493788 -1.94203 3.40359 1 -7.37595 0.00970969 4
418 1 19.6388 1.78373 7.2031 3.27945 -7.6416 -1.52165 1 -7.30782 0.0444813 4
419 1 18.7159 0.879188 8.09156 -1.78809 3.25394 0.846467 1 -7.33963 0.00902635 4
420 1 20.54 2.71714 8.08329 -0.989934 3.36946 -2.67121 1 -7.26157 0.0121178 4
421 1 17.845 3.5714 7.19662 8.07105 -0.544899 1.76763 1 -7.35042 0.0426755 4
709 1 17.7556 0.0491594 7.16112 11.5726 -4.20869 7.36292 1 -7.21199 0.128127 4
422 1 19.6677 0.000434128 5.40333 9.03318 -4.59417 3.2964 1 -7.28118 0.0706896 4
423 1 0.941353 4.49756 4.47841 -0.346541 -4.24047 7.09831 1 -7.26207 0.0426285 4
424 1 0.88779 6.2795 6.30065 0.326894 -1.98847 -0.978774 1 -7.31882 0.00312387 4
425 1 2.73195 4.50527 6.24398 -0.348957 -3.82934 1.59921 1 -7.27671 0.0107948 4
426 1 2.67902 6.24787 4.52349 4.99563 -9.3727 -5.07844 1 -7.35332 0.0862648 4
427 1 3.57332 5.36427 5.37537 3.67425 1.96946 2.78892 1 -7.4422 0.0156583 4
428 1 1.77321 7.13346 5.35516 -3.12229 3.05631 7.67937 1 -7.25502 0.0485881 4
429 1 0.913284 8.04926 4.45101 0.421431 -3.86088 -5.72288 1 -7.30075 0.029774 4
430 1 2.71515 8.06847 6.25709 -3.39212 -2.99809 4.96162 1 -7.21758 0.0280793 4
431 1 1.80377 5.38043 7.19028 -0.627245 -1.49897 2.36383 1 -7.28512 0.00512135 4