ITEM: TIMESTEP
49126225
ITEM: NUMBER OF ATOMS
3060
ITEM: BOX BOUNDS pp pp mm
0.0000000000000000e+00 2.1394294200000001e+01
0.0000000000000000e+00 2.1394294200000001e+01
-5.3491084073550004e-03 5.3485735499999997e+01
ITEM: ATOMS id type x y z vx vy vz c_clusts c_atom_pe c_atom_ke c_atom_coord
1 1 0 0 0 0 0 0 1 -3.32387 0 2
2 1 1.78286 1.78286 0 0 0 0 1 -3.32867 0 2
3 1 0.891429 0.891429 0.891429 0 0 0 1 -7.02317 0 4
4 1 0.889314 2.64797 2.67761 -2.92426 -4.62135 4.23824 1 -7.32398 0.0297961 4
5 1 2.64942 0.89669 2.65295 -0.608219 -5.84724 -5.85492 1 -7.28683 0.0428479 4
6 1 2.67429 2.67429 0.891429 0 0 0 1 -7.0237 0 4
7 1 3.56572 0 0 0 0 0 1 -3.34116 0 2
8 1 3.57212 1.83462 1.77289 -7.15019 -3.25107 -8.33737 1 -7.33893 0.0816663 4
9 1 0 3.56572 0 0 0 0 1 -3.32214 0 2
10 1 1.77289 3.57104 1.7388 -4.22132 -2.41745 -3.51073 1 -7.30376 0.0224004 4
11 1 3.56572 3.56572 0 0 0 0 1 -3.32913 0 2
12 1 1.74703 1.73596 3.5613 6.39996 6.22414 -3.53296 1 -7.32733 0.057376 4
13 1 3.51651 3.58874 3.53029 -2.54663 -8.82428 0.0587615 1 -7.42283 0.0525058 4
292 1 1.79587 0.00968006 1.77892 5.33631 -0.933388 -3.27153 1 -7.37163 0.0249284 4
56 1 0.0204936 3.57298 3.54534 -4.33526 6.03925 0.975706 1 -7.34176 0.0349922 4
55 1 0.00689242 1.78972 1.76238 -4.09763 7.98126 -2.22127 1 -7.33342 0.0531708 4
291 1 3.5479 0.000150374 3.58888 -8.67475 -0.615816 -0.935745 1 -7.29245 0.0476195 4
14 1 5.34857 1.78286 0 0 0 0 1 -3.33394 0 2
15 1 4.45714 0.891429 0.891429 0 0 0 1 -6.97152 0 4
16 1 4.4511 2.74341 2.6816 -4.81175 -2.29499 2.67592 1 -7.35214 0.0221462 4
17 1 6.22117 0.929244 2.65749 8.9904 4.09115 -2.70825 1 -7.30812 0.0652922 4
18 1 6.24 2.67429 0.891429 0 0 0 1 -6.97681 0 4
19 1 7.13143 0 0 0 0 0 1 -3.35849 0 2
20 1 7.15501 1.7666 1.74996 -4.38882 -1.50078 2.95033 1 -7.31907 0.0188088 4
21 1 8.02286 0.891429 0.891429 0 0 0 1 -7.05722 0 4
22 1 7.99886 2.71533 2.69188 6.98782 -0.679006 -2.78744 1 -7.31284 0.0355159 4
23 1 5.3524 3.58564 1.82208 -1.55023 1.46077 4.7218 1 -7.32795 0.0167012 4
24 1 7.13143 3.56572 0 0 0 0 1 -3.32634 0 2
25 1 5.36025 1.83539 3.58465 -2.88806 2.66049 10.5545 1 -7.34824 0.0789337 4
26 1 7.09889 3.56843 3.60109 -6.28305 0.996634 -5.37086 1 -7.3788 0.0431442 4
306 1 7.082 0.0174705 3.58751 -3.02392 3.34916 8.4195 1 -7.3037 0.0567957 4
28 1 8.91429 1.78286 0 0 0 0 1 -3.33123 0 2
29 1 9.85001 0.89298 2.66413 -6.48202 -2.30833 6.00259 1 -7.30876 0.0518954 4
30 1 9.80572 2.67429 0.891429 0 0 0 1 -7.04533 0 4
31 1 10.6971 0 0 0 0 0 1 -3.33668 0 2
32 1 10.7099 1.79309 1.75747 -1.46328 3.58851 -6.15517 1 -7.36459 0.0329293 4
33 1 12.48 1.78286 0 0 0 0 1 -3.33227 0 2
34 1 11.5886 0.891429 0.891429 0 0 0 1 -7.01344 0 4
35 1 11.5676 2.67534 2.69475 -4.58747 -0.138967 -6.0196 1 -7.29736 0.0356649 4
36 1 8.92267 3.55194 1.81909 -3.42188 -1.17856 0.56906 1 -7.35348 0.00835429 4
37 1 10.6971 3.56572 0 0 0 0 1 -3.34134 0 2
38 1 12.4895 3.56039 1.77609 -1.39587 -4.64007 -8.11635 1 -7.32387 0.0556162 4
39 1 8.87282 1.75328 3.58944 -0.52629 -1.28707 1.47025 1 -7.2641 0.00254893 4
40 1 12.4832 1.75129 3.58084 2.27465 4.39526 0.302691 1 -7.35293 0.0153017 4
41 1 10.7032 3.58974 3.57159 1.24214 6.38567 2.40719 1 -7.38583 0.0299476 4
319 1 10.7103 0.0440867 3.57622 -5.08457 -5.05928 -0.122867 1 -7.37174 0.0320327 4
320 1 8.93315 0.0290194 1.80273 8.71505 -1.03411 -2.24694 1 -7.35131 0.0510827 4
321 1 12.4882 0.0105109 1.79723 -1.91621 2.3995 7.68583 1 -7.34941 0.0426371 4
42 1 13.3673 0.916098 2.72042 1.86245 1.88955 0.334998 1 -7.38053 0.00445117 4
43 1 13.3714 2.67429 0.891429 0 0 0 1 -6.98888 0 4
44 1 14.2629 0 0 0 0 0 1 -3.32927 0 2
45 1 14.288 1.77881 1.81609 4.37375 5.05256 8.01601 1 -7.30916 0.0677913 4
46 1 16.0457 1.78286 0 0 0 0 1 -3.31766 0 2
47 1 15.1543 0.891429 0.891429 0 0 0 1 -7.02358 0 4
48 1 15.1652 2.68746 2.67984 -10.7992 1.02428 -4.11079 1 -7.37082 0.0837604 4
49 1 16.9126 0.864474 2.66179 -5.43567 5.81051 -4.00058 1 -7.31325 0.0493666 4
50 1 16.9371 2.67429 0.891429 0 0 0 1 -7.02773 0 4
51 1 14.2629 3.56572 0 0 0 0 1 -3.3267 0 2
52 1 16.0342 3.56459 1.76982 -6.86268 5.46776 -1.92617 1 -7.37998 0.0502317 4
53 1 16.0502 1.77827 3.5657 -8.97496 0.570409 6.02904 1 -7.34372 0.0729636 4
54 1 14.2519 3.53685 3.58231 -4.67774 -7.90562 4.00367 1 -7.39415 0.0624975 4
336 1 14.3154 0.0284036 3.55498 -2.28767 3.80824 4.00586 1 -7.33023 0.0222723 4
57 1 17.8286 0 0 0 0 0 1 -3.31842 0 2
58 1 17.7672 1.76919 1.77996 -1.74083 8.55396 2.17967 1 -7.33858 0.0503865 4
59 1 19.6114 1.78286 0 0 0 0 1 -3.33651 0 2
60 1 18.72 0.891429 0.891429 0 0 0 1 -7.007 0 4
61 1 18.6701 2.64356 2.66379 0.336954 -0.912418 -2.03142 1 -7.35742 0.00315738 4
62 1 20.4939 0.877004 2.6664 -1.66174 4.5777 1.14737 1 -7.32903 0.0155813 4
63 1 20.5029 2.67429 0.891429 0 0 0 1 -7.02212 0 4
64 1 17.8286 3.56572 0 0 0 0 1 -3.33337 0 2
65 1 19.6064 3.55478 1.81048 -1.44503 -0.232574 -4.00766 1 -7.36505 0.0113304 4
66 1 19.5574 1.76718 3.54374 -0.952799 1.54926 0.525381 1 -7.33918 0.00223082 4
67 1 17.7724 3.56623 3.51343 4.75603 1.85976 -3.3412 1 -7.31171 0.0231805 4
68 1 19.6238 0.0193087 1.76133 -2.20862 2.27498 -2.1201 1 -7.36126 0.00905528 4
69 1 1.78286 5.34857 0 0 0 0 1 -3.32802 0 2
70 1 0.891429 4.45714 0.891429 0 0 0 1 -6.99619 0 4
71 1 0.923754 6.20833 2.67237 3.666 -6.0312 -7.30329 1 -7.29748 0.0642051 4
72 1 2.63789 4.49384 2.67442 -5.97862 2.30595 0.242284 1 -7.32008 0.0255941 4
73 1 2.67429 6.24 0.891429 0 0 0 1 -7.02248 0 4
74 1 3.55361 5.38117 1.77742 -0.0154264 -10.9152 1.30539 1 -7.33617 0.0752171 4
75 1 0 7.13143 0 0 0 0 1 -3.34001 0 2
76 1 1.75178 7.11374 1.74433 -1.35949 -6.96375 -6.38437 1 -7.30317 0.0567044 4
77 1 0.891429 8.02286 0.891429 0 0 0 1 -7.05391 0 4
78 1 2.69875 8.0397 2.65756 -2.5966 7.85709 -8.0707 1 -7.30366 0.0831639 4
79 1 3.56572 7.13143 0 0 0 0 1 -3.33189 0 2
80 1 1.76007 5.35843 3.55369 0.462453 6.7262 -2.58865 1 -7.38677 0.0324637 4
81 1 3.57937 7.15066 3.53972 4.61329 2.95637 -2.58531 1 -7.33526 0.022847 4
128 1 -0.0316578 5.33799 1.79028 -8.25018 -4.37245 -9.67679 1 -7.33709 0.11255 4
82 1 0.0297312 7.12954 3.5712 1.66332 1.27357 -2.14498 1 -7.30429 0.00559532 4
83 1 5.34857 5.34857 0 0 0 0 1 -3.33564 0 2
84 1 4.45714 4.45714 0.891429 0 0 0 1 -6.9786 0 4
85 1 4.48265 6.19338 2.6892 -2.97485 -2.91359 1.20461 1 -7.28697 0.0116953 4
86 1 6.23983 4.47017 2.73445 1.73768 11.4315 2.60585 1 -7.36152 0.0874448 4
87 1 6.24 6.24 0.891429 0 0 0 1 -7.01447 0 4
88 1 7.10867 5.36921 1.79327 -1.0196 7.87306 -8.64764 1 -7.34004 0.0857743 4
89 1 8.02286 4.45714 0.891429 0 0 0 1 -6.95823 0 4
90 1 7.9986 6.25697 2.67924 5.80552 -3.57214 -7.43659 1 -7.34849 0.0633425 4
91 1 5.36468 7.13545 1.77641 -4.99328 -2.2943 -0.750284 1 -7.32084 0.0191456 4
92 1 4.45714 8.02286 0.891429 0 0 0 1 -7.02507 0 4
93 1 6.27623 8.0341 2.65835 -0.681824 -4.20555 -2.10102 1 -7.25414 0.0140455 4
94 1 7.13143 7.13143 0 0 0 0 1 -3.34476 0 2
95 1 8.02286 8.02286 0.891429 0 0 0 1 -6.99348 0 4
96 1 5.34895 5.31835 3.6079 2.39315 1.44388 -4.1103 1 -7.36795 0.015378 4
97 1 7.11015 7.07859 3.6084 -5.82634 0.0405653 2.85206 1 -7.33338 0.026193 4
98 1 8.91429 5.34857 0 0 0 0 1 -3.33375 0 2
99 1 9.79707 4.48791 2.69138 0.965874 0.521755 -0.649616 1 -7.34485 0.00101277 4
100 1 9.80572 6.24 0.891429 0 0 0 1 -7.00058 0 4
101 1 10.7361 5.3505 1.78209 -0.707785 3.22774 -4.62434 1 -7.33858 0.0201067 4
102 1 12.48 5.34857 0 0 0 0 1 -3.33496 0 2
103 1 11.5886 4.45714 0.891429 0 0 0 1 -7.04739 0 4
104 1 11.6225 6.29565 2.66734 0.770829 -3.52782 2.44154 1 -7.3492 0.0118266 4
105 1 8.90087 7.10594 1.76829 -5.89514 -7.26026 2.25138 1 -7.38781 0.0575948 4
106 1 9.78837 7.99211 2.67659 -4.74278 -2.29124 -7.82529 1 -7.30992 0.0553828 4
107 1 10.6971 7.13143 0 0 0 0 1 -3.31628 0 2
108 1 12.498 7.14713 1.7865 5.50137 4.68386 -3.52091 1 -7.40661 0.040209 4
109 1 11.5886 8.02286 0.891429 0 0 0 1 -6.94787 0 4
110 1 8.88159 5.36998 3.58377 -4.01015 -10.773 1.86966 1 -7.35167 0.0844226 4
111 1 12.4893 5.42004 3.53365 5.38458 -3.47322 -0.345756 1 -7.2283 0.0256293 4
112 1 10.6898 7.13249 3.59964 -0.720604 -1.64442 -6.43382 1 -7.31729 0.0277711 4
113 1 13.3869 4.4095 2.68885 -3.30173 5.98537 2.22784 1 -7.24975 0.0321728 4
114 1 13.3714 6.24 0.891429 0 0 0 1 -7.05543 0 4
115 1 14.2499 5.37095 1.76717 0.992389 1.23643 -10.7149 1 -7.23157 0.0730244 4
116 1 16.0457 5.34857 0 0 0 0 1 -3.3218 0 2
117 1 15.1543 4.45714 0.891429 0 0 0 1 -7.0044 0 4
118 1 15.2026 6.27638 2.69835 -8.75322 -0.868031 2.92429 1 -7.25056 0.0534812 4
119 1 16.9189 4.42934 2.6528 -4.18683 -2.33917 3.1373 1 -7.36429 0.0204429 4
120 1 16.9371 6.24 0.891429 0 0 0 1 -7.04947 0 4
121 1 13.3756 8.06205 2.64793 5.95867 -6.57508 0.202227 1 -7.32431 0.0490336 4
122 1 14.2629 7.13143 0 0 0 0 1 -3.34023 0 2
123 1 16.0771 7.14851 1.75193 2.7212 -4.50528 -4.58589 1 -7.35964 0.0303326 4
124 1 15.1543 8.02286 0.891429 0 0 0 1 -7.02261 0 4
125 1 16.9228 8.04283 2.70219 3.87593 -3.8599 -5.16171 1 -7.32898 0.0352075 4
126 1 16.0217 5.33152 3.5818 4.99654 5.12496 -6.71094 1 -7.34397 0.0599193 4
127 1 14.2823 7.16546 3.58028 12.7524 -1.07085 3.10689 1 -7.30579 0.107943 4
129 1 17.7968 5.33522 1.73404 -1.86904 1.71825 -9.39002 1 -7.37685 0.0588929 4
130 1 19.6114 5.34857 0 0 0 0 1 -3.32085 0 2
131 1 18.72 4.45714 0.891429 0 0 0 1 -7.0002 0 4
132 1 18.665 6.23273 2.64295 1.5449 2.33827 2.60695 1 -7.32897 0.00911882 4
133 1 20.4825 4.4466 2.69178 -0.983205 4.30427 0.181452 1 -7.36827 0.0121537 4
134 1 20.5029 6.24 0.891429 0 0 0 1 -7.0039 0 4
135 1 17.8286 7.13143 0 0 0 0 1 -3.30922 0 2
136 1 19.5607 7.11711 1.7808 -1.79438 -4.98645 5.44984 1 -7.31975 0.0359671 4
137 1 18.72 8.02286 0.891429 0 0 0 1 -6.99908 0 4
138 1 20.5035 8.02913 2.63209 0.268801 2.05171 0.46967 1 -7.31565 0.00280239 4
139 1 19.6026 5.34733 3.58967 6.33373 -0.90519 -4.70984 1 -7.27456 0.0392863 4
140 1 17.8165 7.16628 3.56693 -4.77543 4.97113 -2.96268 1 -7.3019 0.0350391 4
141 1 1.78286 8.91429 0 0 0 0 1 -3.34404 0 2
142 1 0.871069 9.77666 2.63851 3.01647 -3.07212 8.63095 1 -7.3496 0.0579044 4
143 1 2.67429 9.80572 0.891429 0 0 0 1 -6.99527 0 4
144 1 3.54667 8.92217 1.76241 3.34891 -4.36435 3.02049 1 -7.37339 0.024515 4
145 1 0 10.6971 0 0 0 0 1 -3.34916 0 2
146 1 1.7807 10.7269 1.79792 -1.89963 2.13881 -7.81596 1 -7.3335 0.0431169 4
147 1 1.78286 12.48 0 0 0 0 1 -3.31539 0 2
148 1 0.891429 11.5886 0.891429 0 0 0 1 -7.04198 0 4
149 1 2.66393 11.6015 2.71147 5.27051 -3.24017 0.361447 1 -7.39577 0.0239059 4
150 1 3.56572 10.6971 0 0 0 0 1 -3.33337 0 2
151 1 3.57081 12.4619 1.79939 -6.18391 -5.55081 3.39389 1 -7.28224 0.0501493 4
152 1 1.76699 8.90415 3.59109 -3.0675 2.64147 4.02271 1 -7.30392 0.0202719 4
153 1 1.74267 12.4756 3.56743 3.26915 0.625056 6.55619 1 -7.35758 0.0336494 4
154 1 3.55231 10.697 3.54262 0.6198 -1.70786 4.48469 1 -7.30003 0.0145731 4
205 1 0.021523 8.88733 1.77539 7.79864 -5.71945 -1.6322 1 -7.39808 0.0598743 4
204 1 0.0274687 12.5029 1.75508 12.8013 -1.76385 -1.01066 1 -7.28695 0.104571 4
155 1 5.34857 8.91429 0 0 0 0 1 -3.34126 0 2
156 1 4.44746 9.84093 2.64523 1.50658 -3.12262 -0.496318 1 -7.34073 0.00763522 4
157 1 6.24 9.80572 0.891429 0 0 0 1 -6.96594 0 4
158 1 7.1944 8.95038 1.80735 -10.5793 -1.43188 3.78151 1 -7.33016 0.07984 4
159 1 8.07288 9.84463 2.6838 3.85363 -5.32095 -2.09107 1 -7.27441 0.0295874 4
160 1 5.3308 10.718 1.77344 11.7207 -1.98125 -1.37795 1 -7.37553 0.0891301 4
161 1 5.34857 12.48 0 0 0 0 1 -3.32709 0 2
162 1 4.45714 11.5886 0.891429 0 0 0 1 -7.02957 0 4
163 1 6.23301 11.5818 2.62965 3.54814 1.10804 5.86481 1 -7.34779 0.0300091 4
164 1 7.13143 10.6971 0 0 0 0 1 -3.31313 0 2
165 1 7.12784 12.4513 1.78188 1.80226 1.33778 5.1858 1 -7.37958 0.0198742 4
166 1 8.02286 11.5886 0.891429 0 0 0 1 -7.03561 0 4
167 1 5.36191 8.90776 3.57256 4.30951 10.4263 6.15299 1 -7.32226 0.102787 4
168 1 5.32704 12.4785 3.5529 -0.00378956 -1.62002 0.712329 1 -7.33818 0.00194936 4
169 1 7.11687 10.6934 3.5989 -1.33033 1.00387 7.50328 1 -7.27693 0.0367709 4
170 1 8.91429 8.91429 0 0 0 0 1 -3.30854 0 2
171 1 9.80572 9.80572 0.891429 0 0 0 1 -6.98525 0 4
172 1 10.6158 8.91406 1.78538 -5.21264 1.62996 -3.34635 1 -7.31265 0.0255359 4
173 1 12.48 8.91429 0 0 0 0 1 -3.34732 0 2
174 1 11.5643 9.82593 2.67663 -5.63006 -2.87746 -0.404815 1 -7.31693 0.0249849 4
175 1 8.86916 10.7388 1.78173 -4.07851 -1.94089 0.444696 1 -7.32663 0.0128214 4
176 1 8.91429 12.48 0 0 0 0 1 -3.34786 0 2
177 1 9.76377 11.604 2.68231 -3.33794 -3.30641 1.52052 1 -7.30269 0.0151785 4
178 1 10.6971 10.6971 0 0 0 0 1 -3.33872 0 2
179 1 10.6738 12.4624 1.78072 6.44309 -10.4553 -5.40635 1 -7.37554 0.112071 4
180 1 12.4804 10.6977 1.77178 -5.474 -3.30438 0.0563047 1 -7.38503 0.025449 4
181 1 12.48 12.48 0 0 0 0 1 -3.33137 0 2
182 1 11.5886 11.5886 0.891429 0 0 0 1 -7.00768 0 4
183 1 8.89453 8.89872 3.61779 -1.72683 -5.5548 -2.5869 1 -7.30132 0.0252268 4
184 1 12.4732 8.95037 3.57368 -5.57331 -3.75909 1.77657 1 -7.34937 0.0300936 4
185 1 8.87137 12.4753 3.56802 -2.10861 -1.47246 1.71583 1 -7.30286 0.00594942 4
186 1 10.6822 10.7128 3.57323 -6.07283 -1.07005 -4.70687 1 -7.38661 0.0374569 4
187 1 12.4393 12.5138 3.58544 1.73338 0.76655 3.91868 1 -7.37714 0.0117939 4
188 1 13.3714 9.80572 0.891429 0 0 0 1 -7.02613 0 4
189 1 14.2794 8.94847 1.79331 -3.48739 -4.80722 1.38538 1 -7.39732 0.0231484 4
190 1 16.0457 8.91429 0 0 0 0 1 -3.32203 0 2
191 1 15.1383 9.83335 2.69008 7.68138 -1.77946 3.23308 1 -7.29573 0.0452023 4
192 1 16.9371 9.80572 0.891429 0 0 0 1 -7.01451 0 4
193 1 13.329 11.5902 2.66048 -0.720256 -0.698237 -1.84194 1 -7.30182 0.00273808 4
194 1 14.2629 10.6971 0 0 0 0 1 -3.33303 0 2
195 1 14.2459 12.4628 1.76286 -8.27655 5.19929 0.537606 1 -7.31859 0.0596427 4
196 1 16.0869 10.7554 1.77152 -5.5796 0.720846 -2.89725 1 -7.30442 0.0249254 4
197 1 16.0457 12.48 0 0 0 0 1 -3.33478 0 2
198 1 15.1543 11.5886 0.891429 0 0 0 1 -7.01902 0 4
199 1 16.9832 11.6237 2.67827 8.97686 0.982141 -0.317884 1 -7.38418 0.0508209 4
200 1 16.0643 8.93657 3.6166 -0.581076 -4.23048 11.9683 1 -7.31699 0.100506 4
201 1 14.2771 10.7416 3.58043 2.71652 -5.84022 9.00971 1 -7.27805 0.0763484 4
202 1 16.1068 12.5231 3.53739 2.86725 8.70796 0.5638 1 -7.34389 0.0525125 4
203 1 21.3785 10.6437 3.5296 1.4311 -3.38406 -1.24752 1 -7.28534 0.00937136 4
206 1 17.8065 8.91302 1.77917 -7.14452 4.44206 1.18519 1 -7.35146 0.0449272 4
207 1 19.6114 8.91429 0 0 0 0 1 -3.33767 0 2
208 1 18.7061 9.78452 2.62611 12.2218 12.617 -6.797 1 -7.35101 0.220812 4
209 1 20.5029 9.80572 0.891429 0 0 0 1 -7.00767 0 4
210 1 17.8286 10.6971 0 0 0 0 1 -3.31687 0 2
211 1 17.8473 12.5596 1.78539 1.17866 -4.95604 -7.12143 1 -7.30629 0.0477191 4
212 1 19.6207 10.6594 1.74417 -3.35972 4.91565 3.65344 1 -7.32544 0.0303737 4
213 1 19.6114 12.48 0 0 0 0 1 -3.32084 0 2
214 1 18.72 11.5886 0.891429 0 0 0 1 -6.93918 0 4
215 1 20.4876 11.5974 2.66503 1.5734 4.80273 -1.9298 1 -7.27104 0.0182159 4
216 1 19.602 8.91022 3.52386 -1.9688 3.34456 1.27244 1 -7.30026 0.0103829 4
217 1 17.8659 10.722 3.52376 -0.579932 -1.23037 3.00234 1 -7.34554 0.00676215 4
218 1 19.6297 12.4736 3.57733 -1.42581 2.76368 0.27265 1 -7.40668 0.00606565 4
219 1 0.867517 13.41 2.71029 -0.336478 -1.60455 4.51755 1 -7.31862 0.0143756 4
220 1 2.67429 13.3714 0.891429 0 0 0 1 -7.02593 0 4
221 1 0 14.2629 0 0 0 0 1 -3.30822 0 2
222 1 1.78312 14.256 1.76239 4.47322 -4.05146 -1.2974 1 -7.31008 0.0237189 4
223 1 1.78286 16.0457 0 0 0 0 1 -3.32928 0 2
224 1 0.891429 15.1543 0.891429 0 0 0 1 -7.03402 0 4
225 1 0.878464 16.9232 2.65628 -0.553217 1.62451 -0.38507 1 -7.36455 0.0019254 4
226 1 2.6715 15.1665 2.6725 0.561018 -2.47434 -3.66702 1 -7.29363 0.0123764 4
227 1 2.67429 16.9371 0.891429 0 0 0 1 -7.02022 0 4
228 1 3.56572 14.2629 0 0 0 0 1 -3.32682 0 2
229 1 3.53848 16.106 1.73307 4.39229 6.22429 3.11285 1 -7.29714 0.0421531 4
230 1 1.76256 16.0456 3.55382 -4.21359 4.79343 3.79695 1 -7.36713 0.0343257 4
231 1 3.50183 14.2358 3.54631 -2.73377 -3.27561 3.86952 1 -7.31123 0.0206498 4
233 1 0.00165081 16.0259 1.74474 5.61077 3.34795 0.886365 1 -7.3432 0.0270601 4
232 1 -0.0130857 14.266 3.62309 -5.73156 0.176106 -7.35062 1 -7.43911 0.0540972 4
234 1 4.48018 13.3934 2.69414 4.29043 -5.73289 -3.78069 1 -7.3145 0.0408109 4
235 1 6.24 13.3714 0.891429 0 0 0 1 -7.00476 0 4
236 1 8.03242 13.3381 2.66695 -1.90966 -3.73663 -5.51328 1 -7.35663 0.0298798 4
237 1 5.33203 14.2616 1.76762 1.27801 -1.80581 3.85404 1 -7.44699 0.0122916 4
238 1 5.34857 16.0457 0 0 0 0 1 -3.3303 0 2
239 1 4.45714 15.1543 0.891429 0 0 0 1 -6.99079 0 4
240 1 4.48052 16.9247 2.6428 2.86344 -5.63735 1.85763 1 -7.27592 0.0270318 4
241 1 6.23076 15.1342 2.63666 -3.56767 2.99568 -0.877043 1 -7.27464 0.0139869 4
242 1 6.24 16.9371 0.891429 0 0 0 1 -6.97919 0 4
243 1 7.13143 14.2629 0 0 0 0 1 -3.35218 0 2
244 1 7.16505 16.0617 1.78069 -3.33229 1.47376 -4.0419 1 -7.27917 0.018432 4
245 1 8.02286 15.1543 0.891429 0 0 0 1 -6.98156 0 4
246 1 8.05139 16.9704 2.6851 -2.19592 5.58827 -4.22641 1 -7.36911 0.0335571 4
247 1 5.40705 16.0569 3.54469 -6.52808 -5.96503 6.77566 1 -7.30311 0.0772474 4
248 1 7.16237 14.2283 3.52655 1.41166 -2.08981 -2.0557 1 -7.33281 0.00658901 4
249 1 9.80572 13.3714 0.891429 0 0 0 1 -7.0194 0 4
250 1 11.5812 13.3489 2.64796 0.74028 -7.50822 1.09905 1 -7.32864 0.0361812 4
251 1 8.95214 14.2635 1.77802 -0.448837 10.0668 1.32522 1 -7.2982 0.0642954 4
252 1 8.91429 16.0457 0 0 0 0 1 -3.31734 0 2
253 1 9.80646 15.2223 2.66141 1.73622 4.83493 -6.58492 1 -7.35176 0.0434156 4
254 1 9.80572 16.9371 0.891429 0 0 0 1 -7.01791 0 4
255 1 10.6971 14.2629 0 0 0 0 1 -3.34299 0 2
256 1 10.6919 16.06 1.78142 -9.40072 -0.691429 -2.14305 1 -7.38969 0.0581622 4
257 1 12.4695 14.3012 1.77241 -0.125521 1.38086 5.47583 1 -7.32906 0.0198599 4
258 1 12.48 16.0457 0 0 0 0 1 -3.32208 0 2
259 1 11.5886 15.1543 0.891429 0 0 0 1 -7.03445 0 4
260 1 11.589 16.9456 2.66282 -6.65531 2.28527 6.84996 1 -7.35724 0.0600253 4
261 1 8.87852 16.0475 3.55482 1.10875 3.25381 1.38806 1 -7.44382 0.00855418 4
262 1 10.7001 14.2764 3.50205 5.46162 -3.05638 5.34482 1 -7.30019 0.0421618 4
263 1 12.5018 16.0858 3.57451 4.67104 -4.21155 11.6564 1 -7.29267 0.109191 4
264 1 13.3714 13.3714 0.891429 0 0 0 1 -6.98125 0 4
265 1 15.1712 13.3938 2.68129 5.96862 -4.52489 -3.49184 1 -7.3531 0.0425067 4
266 1 16.9371 13.3714 0.891429 0 0 0 1 -7.04794 0 4
267 1 13.3752 15.1862 2.67879 -1.81854 4.06882 3.00129 1 -7.37319 0.0179695 4
268 1 13.3714 16.9371 0.891429 0 0 0 1 -7.02366 0 4
269 1 14.2629 14.2629 0 0 0 0 1 -3.31916 0 2
270 1 14.2694 16.0294 1.744 -6.58993 -0.471916 4.91282 1 -7.31099 0.0421916 4
271 1 16.0468 14.2538 1.76452 0.297329 6.86772 1.48976 1 -7.34364 0.0307935 4
272 1 16.0457 16.0457 0 0 0 0 1 -3.33824 0 2
273 1 15.1543 15.1543 0.891429 0 0 0 1 -7.05141 0 4
274 1 15.166 16.9838 2.65554 0.065155 -3.90003 -2.60836 1 -7.29559 0.0137046 4
275 1 16.9448 15.1587 2.66671 -1.27267 1.58158 -7.38887 1 -7.34621 0.0365467 4
276 1 16.9371 16.9371 0.891429 0 0 0 1 -7.06462 0 4
277 1 14.2857 14.2799 3.54111 -0.517933 1.83289 5.57433 1 -7.3467 0.0215987 4
278 1 16.0594 16.0535 3.53614 5.08709 -0.960941 -2.89199 1 -7.23059 0.0218879 4
279 1 18.7598 13.3843 2.68039 -1.26343 -1.27659 4.11381 1 -7.37221 0.0125415 4
280 1 20.5029 13.3714 0.891429 0 0 0 1 -7.01971 0 4
281 1 17.8286 14.2629 0 0 0 0 1 -3.3141 0 2
282 1 17.7939 16.059 1.77846 6.4824 6.64754 3.22445 1 -7.34196 0.0601316 4
283 1 19.6377 14.258 1.78383 7.06443 -6.00514 7.30475 1 -7.32773 0.0867209 4
284 1 19.6114 16.0457 0 0 0 0 1 -3.3131 0 2
285 1 18.72 15.1543 0.891429 0 0 0 1 -6.99116 0 4
286 1 18.7105 16.9341 2.67713 5.12271 1.22218 -0.496631 1 -7.41304 0.0174171 4
287 1 20.5254 15.1547 2.71502 -1.47119 -12.182 1.47255 1 -7.26646 0.0950657 4
288 1 20.5029 16.9371 0.891429 0 0 0 1 -7.03739 0 4
289 1 17.8812 14.2781 3.57632 -1.47534 2.33118 -3.34291 1 -7.34848 0.0116929 4
290 1 19.5776 16.0737 3.58373 -2.28603 10.1988 9.17133 1 -7.3337 0.120349 4
293 1 0 17.8286 0 0 0 0 1 -3.33996 0 2
294 1 1.75191 17.8243 1.77787 -1.0328 5.16645 -4.70753 1 -7.36833 0.0310713 4
295 1 1.78286 19.6114 0 0 0 0 1 -3.33535 0 2
296 1 0.891429 18.72 0.891429 0 0 0 1 -7.01731 0 4
297 1 0.922667 20.4955 2.68149 2.20218 -2.2525 -1.11736 1 -7.3574 0.00695363 4
298 1 2.65653 18.6965 2.64523 3.3446 4.9677 20.0899 1 -7.37753 0.273537 4
299 1 2.67429 20.5029 0.891429 0 0 0 1 -7.03567 0 4
300 1 3.56572 17.8286 0 0 0 0 1 -3.32341 0 2
301 1 3.51312 19.6198 1.76958 0.232294 7.76294 9.44302 1 -7.34356 0.0930451 4
302 1 1.79934 19.6201 3.55095 5.59486 -2.559 0.98828 1 -7.36598 0.0241673 4
303 1 3.5228 17.8029 3.54143 -2.15707 0.985559 8.06148 1 -7.34171 0.0439506 4
305 1 0.014453 19.6154 1.77473 -1.80378 -3.85741 -1.3695 1 -7.34391 0.012454 4
304 1 0.00956073 17.8034 3.54825 2.33092 -7.71677 0.376744 1 -7.38852 0.0405347 4
27 1 5.31791 21.375 1.81347 -5.53168 1.68559 4.28686 1 -7.33881 0.0322528 4
307 1 5.34879 17.8411 1.80911 -0.844151 0.398634 -3.71681 1 -7.3198 0.00914105 4
308 1 5.34857 19.6114 0 0 0 0 1 -3.33564 0 2
309 1 4.45714 18.72 0.891429 0 0 0 1 -6.97442 0 4
310 1 4.4171 20.4968 2.69287 8.56632 -0.824523 -2.59615 1 -7.35047 0.050293 4
311 1 6.22265 18.7767 2.68838 1.10915 -2.76913 -0.278734 1 -7.3419 0.0055869 4
312 1 6.24 20.5029 0.891429 0 0 0 1 -7.00472 0 4
313 1 7.13143 17.8286 0 0 0 0 1 -3.31922 0 2
314 1 7.1084 19.6367 1.78159 -1.00511 3.78034 4.34931 1 -7.348 0.021298 4
315 1 8.02286 18.72 0.891429 0 0 0 1 -7.01912 0 4
316 1 8.02369 20.5415 2.70512 -0.785727 0.645245 -5.50892 1 -7.29871 0.019533 4
317 1 5.30845 19.6047 3.60948 -1.60586 -0.850421 -6.05305 1 -7.34096 0.0248606 4
318 1 7.09861 17.8561 3.55635 -3.88349 4.34237 11.5004 1 -7.362 0.103445 4
322 1 8.91303 17.8206 1.78173 -9.21787 -2.19103 -3.9482 1 -7.39055 0.0655776 4
323 1 8.91429 19.6114 0 0 0 0 1 -3.33761 0 2
324 1 9.80656 18.6993 2.6499 1.25129 -5.10097 0.449109 1 -7.2442 0.0172956 4
325 1 9.80572 20.5029 0.891429 0 0 0 1 -7.01257 0 4
326 1 10.6971 17.8286 0 0 0 0 1 -3.32595 0 2
327 1 10.6672 19.622 1.75762 -1.35799 -0.101198 -3.15566 1 -7.33498 0.00735245 4
328 1 12.496 17.8215 1.77561 -2.54215 4.19784 -6.13694 1 -7.33205 0.0384325 4
329 1 12.48 19.6114 0 0 0 0 1 -3.33706 0 2
330 1 11.5886 18.72 0.891429 0 0 0 1 -6.99014 0 4
331 1 11.5676 20.537 2.68415 7.99027 0.541438 -3.5698 1 -7.34283 0.0478528 4
332 1 8.87245 19.6591 3.58982 1.5629 4.646 -2.00993 1 -7.27445 0.0174702 4
333 1 10.7198 17.8225 3.5749 3.6514 1.21018 5.06961 1 -7.30516 0.0252071 4
334 1 12.4474 19.6113 3.5468 -2.87154 4.69115 5.69156 1 -7.31638 0.0389928 4
335 1 16.0508 21.3831 1.76161 0.0290455 0.103287 2.72137 1 -7.3478 0.00461675 4
337 1 13.3824 18.7649 2.69226 3.69884 2.83688 -4.16474 1 -7.29905 0.0243209 4
338 1 13.3714 20.5029 0.891429 0 0 0 1 -7.03306 0 4
339 1 14.2629 17.8286 0 0 0 0 1 -3.33593 0 2
340 1 14.2768 19.6286 1.76578 -3.73433 -2.25892 -3.88411 1 -7.38839 0.021246 4
341 1 16.0888 17.8329 1.76297 -4.58991 -1.99561 0.829426 1 -7.35009 0.0160198 4
342 1 16.0457 19.6114 0 0 0 0 1 -3.30523 0 2
343 1 15.1543 18.72 0.891429 0 0 0 1 -7.00351 0 4
344 1 15.147 20.504 2.6596 5.71495 -3.77154 -6.10348 1 -7.34345 0.0523695 4
345 1 16.9311 18.7458 2.64657 -1.62575 -1.48 1.12099 1 -7.34238 0.00379062 4
346 1 16.9371 20.5029 0.891429 0 0 0 1 -7.04454 0 4
347 1 14.2836 17.8306 3.56736 4.04244 -10.2938 -1.51662 1 -7.37229 0.0775561 4
348 1 16.0428 19.6091 3.5645 -0.222761 -1.51145 -0.863277 1 -7.3654 0.00191666 4
350 1 21.3942 21.3677 3.56889 6.77706 3.94505 -6.87455 1 -7.3371 0.0676897 4
349 1 17.8596 21.339 3.5699 0.810846 2.6789 -2.74403 1 -7.3151 0.00956276 4
351 1 17.8286 17.8286 0 0 0 0 1 -3.31395 0 2
352 1 17.8225 19.6088 1.75596 8.1242 1.38301 5.77537 1 -7.37556 0.0630332 4
353 1 19.6105 17.7805 1.77954 -1.40185 5.43227 2.60775 1 -7.33594 0.0238234 4
354 1 19.6114 19.6114 0 0 0 0 1 -3.34218 0 2
355 1 18.72 18.72 0.891429 0 0 0 1 -6.99865 0 4
356 1 18.7461 20.4746 2.64413 0.626228 -1.47073 2.45551 1 -7.35137 0.00534335 4
357 1 20.5338 18.6884 2.68965 6.43865 1.34703 -0.232802 1 -7.33601 0.0269665 4
358 1 20.5029 20.5029 0.891429 0 0 0 1 -7.02342 0 4
359 1 17.8398 17.8352 3.55494 -2.57582 1.08532 6.89746 1 -7.32727 0.0344748 4
360 1 19.6221 19.5793 3.51261 2.28041 -1.68588 9.03111 1 -7.35276 0.0557715 4
361 1 0.882304 0.812426 4.46914 2.64079 -0.601151 0.0242966 1 -7.34371 0.00456595 4
362 1 0.873945 2.6938 6.24835 -3.31944 -1.24794 -2.04294 1 -7.36242 0.0104254 4
363 1 2.64743 0.923577 6.2573 2.86968 -4.2086 -3.57219 1 -7.37204 0.0240928 4
364 1 2.66661 2.66562 4.43063 6.00025 7.56744 -0.0903435 1 -7.29427 0.0580582 4
365 1 3.57122 1.77908 5.39107 3.11617 13.0549 0.456269 1 -7.27944 0.112254 4
366 1 1.76613 3.5129 5.33592 -1.60765 6.14264 1.30954 1 -7.31638 0.0261614 4
367 1 1.77611 1.82841 7.12681 7.37512 8.29644 1.57369 1 -7.37061 0.0782389 4
368 1 0.868051 0.924574 7.9959 -3.4294 5.29542 -10.8668 1 -7.3571 0.098274 4
369 1 2.7027 2.65674 8.04008 -1.09497 0.0768274 3.5148 1 -7.32267 0.00843929 4
370 1 3.52446 3.53652 7.17746 -4.18798 1.22904 -0.350772 1 -7.37626 0.0119336 4
651 1 3.54352 0.00880489 7.15111 2.2216 -8.20594 -1.94608 1 -7.28673 0.0473418 4
710 1 0.00745942 0.00297301 7.12975 -1.43034 -1.15123 0.809829 1 -7.34029 0.00250653 4
372 1 4.46517 0.93729 4.48515 4.20985 1.20745 -7.34067 1 -7.3623 0.0454783 4
373 1 4.40122 2.7014 6.27416 -1.44114 -8.35844 -3.96301 1 -7.30983 0.0545531 4
374 1 6.24114 0.89599 6.23554 2.04923 1.46725 -4.29321 1 -7.35551 0.0154261 4
375 1 6.27866 2.6707 4.45971 2.28185 -9.19365 2.30232 1 -7.34174 0.0591496 4
376 1 7.11534 1.80153 5.40178 -1.66414 1.3697 -0.225852 1 -7.37157 0.00292318 4
377 1 8.01372 0.903094 4.48672 -0.573017 5.89855 -5.4916 1 -7.3604 0.0406313 4
378 1 8.04829 2.66549 6.31289 -0.203507 4.389 4.97343 1 -7.34484 0.0274115 4
379 1 5.29629 3.55456 5.31291 -10.5621 -4.32925 1.27862 1 -7.25351 0.0821204 4
380 1 5.31039 1.77937 7.11216 7.92263 -1.83652 -6.19279 1 -7.31832 0.0650382 4
381 1 4.42413 0.897544 7.99389 -1.98311 -9.10971 4.74835 1 -7.27737 0.0681347 4
382 1 6.25915 2.64333 8.0228 -1.43339 7.49087 -7.54564 1 -7.2366 0.071644 4
383 1 8.02375 0.900486 8.04756 -6.43909 3.17562 0.786171 1 -7.34146 0.0324686 4
384 1 7.15602 3.5371 7.14408 -1.82428 10.6742 -1.95817 1 -7.35299 0.0753759 4
385 1 5.30948 0.0134568 5.36845 3.22214 2.00033 -7.07558 1 -7.27192 0.0401138 4
386 1 9.80395 0.863864 6.30257 4.11755 1.86193 -3.72086 1 -7.28716 0.0213279 4
387 1 9.78871 2.65668 4.46162 0.38266 1.90988 1.21297 1 -7.31911 0.00327731 4
388 1 10.6877 1.7571 5.37344 -0.379041 -0.143082 7.42854 1 -7.34416 0.0344497 4
389 1 11.5914 0.876414 4.49787 -1.99377 -6.10124 -7.33826 1 -7.40142 0.0591618 4
390 1 11.5981 2.66804 6.25291 1.42763 -1.30177 -0.421455 1 -7.34799 0.00243392 4
391 1 8.94001 3.526 5.37875 2.25067 4.05118 3.80823 1 -7.32617 0.022395 4
392 1 12.51 3.57825 5.33549 2.36531 -0.803014 2.26688 1 -7.36563 0.00708213 4
393 1 8.91836 1.77466 7.15928 -0.437613 -0.94558 -1.50273 1 -7.37106 0.00208128 4
394 1 9.84076 2.67652 8.06365 -3.6955 7.69101 0.152806 1 -7.34586 0.0453324 4
395 1 12.4728 1.7718 7.14926 -0.418092 -1.41401 -8.28791 1 -7.32528 0.0441074 4
396 1 11.5877 0.870423 8.05021 1.37046 -5.66548 -2.2864 1 -7.33655 0.0244012 4
397 1 10.7461 3.54479 7.17587 -3.00566 2.49945 2.21673 1 -7.3414 0.01257 4
398 1 13.3937 0.841684 6.24794 3.50654 -2.71374 6.84882 1 -7.29746 0.0414328 4
399 1 13.3442 2.69297 4.46279 5.90887 9.97514 -0.278609 1 -7.28675 0.0837137 4
400 1 14.2671 1.73579 5.35577 -5.07482 1.26288 -1.46536 1 -7.28461 0.0183591 4
401 1 15.186 0.887184 4.46078 1.04414 4.10564 -6.17971 1 -7.40039 0.0349401 4
402 1 15.086 2.70581 6.24974 4.66494 0.378404 5.52026 1 -7.29821 0.0326015 4
403 1 16.936 0.876624 6.23447 2.73219 3.81868 5.43127 1 -7.36925 0.0320835 4
404 1 16.9064 2.67389 4.44572 -0.237634 -6.33405 8.48168 1 -7.31022 0.0697837 4
405 1 16.0286 3.56565 5.35047 -2.81604 5.0226 1.01391 1 -7.36256 0.0212774 4
406 1 13.3491 2.65234 8.04102 -7.16254 -7.35841 -6.24174 1 -7.31715 0.089883 4
407 1 16.0251 1.79576 7.13812 3.28991 -6.79212 2.04391 1 -7.26335 0.0380513 4
408 1 15.2018 0.872765 8.0699 -1.58364 -2.9752 -4.44398 1 -7.33865 0.0193629 4
409 1 16.9052 2.69671 8.04136 1.22609 7.95422 -2.28041 1 -7.31868 0.0435532 4
410 1 14.2653 3.56771 7.11589 -1.41066 1.53382 3.07732 1 -7.36053 0.00859724 4
695 1 14.3213 0.0119137 7.1631 -7.06925 -3.09383 0.717112 1 -7.34462 0.0373831 4
411 1 21.3784 1.75463 5.36384 -0.227436 -5.78308 2.4365 1 -7.2935 0.0245437 4
371 1 21.36 3.59323 7.13051 3.44916 -4.41188 -1.05448 1 -7.3579 0.0202122 4
412 1 17.8433 1.76903 5.34324 2.06907 3.87744 -0.897398 1 -7.3631 0.0125238 4
413 1 18.7013 0.891062 4.46065 -6.28131 -1.54138 -4.37649 1 -7.31357 0.0379583 4
414 1 18.693 2.66486 6.23595 -1.31307 -3.67619 -2.64813 1 -7.37289 0.0138497 4
415 1 20.467 0.892379 6.30697 -4.53015 5.5386 -0.281639 1 -7.32289 0.0319166 4
416 1 20.5005 2.64488 4.45675 7.09011 4.83568 2.31528 1 -7.3136 0.0491804 4
417 1 19.5978 3.51773 5.32364 -7.17278 -1.36439 -5.10035 1 -7.34138 0.0493733 4
418 1 19.5924 1.76528 7.12615 0.027676 -6.59066 -1.92323 1 -7.39946 0.0293389 4
419 1 18.7274 0.861576 8.02725 -10.2106 -1.29569 0.166392 1 -7.33072 0.0659543 4
420 1 20.4702 2.66683 7.99608 -0.647716 -5.60982 2.86895 1 -7.33886 0.024972 4
421 1 17.8489 3.50937 7.16319 -4.25083 0.671625 -7.30469 1 -7.34087 0.0447394 4
423 1 0.893092 4.44683 4.43145 1.2141 -0.826894 0.206864 1 -7.357 0.0013697 4
424 1 0.931195 6.16526 6.21973 6.3777 4.94662 -1.27611 1 -7.33144 0.041561 4
425 1 2.65432 4.42735 6.22938 -2.18023 -10.3066 -4.63707 1 -7.29021 0.0824598 4
426 1 2.6825 6.27302 4.44788 -0.598755 -6.71337 -1.53803 1 -7.27448 0.0297479 4
427 1 3.5812 5.34766 5.36456 -7.83142 -3.55263 -2.2499 1 -7.31594 0.0491807 4
428 1 1.79494 7.12618 5.35893 8.31466 4.51873 8.18704 1 -7.32652 0.0974596 4
429 1 0.901044 7.99305 4.48526 -3.34949 2.14984 4.26698 1 -7.3789 0.0211923 4
430 1 2.70811 8.02165 6.24477 9.43172 -14.0355 -4.92137 1 -7.32994 0.19306 4
431 1 1.77101 5.32567 7.13353 9.95662 -4.5657 6.77197 1 -7.33652 0.103223 4
432 1 0.852168 4.42696 8.03948 -4.03939 -5.07649 3.8274 1 -7.36632 0.0353142 4
433 1 2.62749 6.21506 7.99949 -10.7909 5.04959 -1.55757 1 -7.35419 0.0898584 4
434 1 0.882393 8.00945 8.05521 -6.24843 -4.94988 -0.0173989 1 -7.37141 0.0395517 4