ITEM: TIMESTEP
2100
ITEM: NUMBER OF ATOMS
2952
ITEM: BOX BOUNDS pp pp mm
0.0000000000000000e+00 2.1394294200000001e+01
0.0000000000000000e+00 2.1394294200000001e+01
-4.4571446250000002e-01 5.3485735500000004e+01
ITEM: ATOMS id type x y z vx vy vz v_is_diamond c_structure_type
1 1 0 0 0 0 0 0 1 3
2 1 1.78286 1.78286 0 0 0 0 1 3
3 1 0.891429 0.891429 0.891429 0 0 0 1 2
4 1 0.885611 2.65003 2.6756 0.830688 -2.96958 -7.36457 1 1
5 1 2.66356 0.879765 2.67247 -4.60536 11.316 1.74489 1 1
6 1 2.67429 2.67429 0.891429 0 0 0 1 2
7 1 -0.023523 1.80529 1.78235 -6.73507 0.500106 -4.87899 1 1
8 1 1.75192 21.3878 1.77788 2.38538 -0.321411 6.74717 1 1
9 1 1.79337 3.56634 1.75485 -6.16874 2.14301 -3.21278 1 1
10 1 3.52875 1.8045 1.7847 1.48966 2.20827 1.90753 1 1
11 1 3.56572 0 0 0 0 0 1 3
12 1 5.34857 1.78286 0 0 0 0 1 3
13 1 4.45714 0.891429 0.891429 0 0 0 1 2
14 1 4.43047 2.68812 2.67283 -3.25817 6.94202 4.04155 1 1
15 1 6.21851 0.906935 2.69431 0.279438 -4.21117 -2.70831 1 1
16 1 6.24 2.67429 0.891429 0 0 0 1 2
17 1 7.10372 1.76203 1.76544 2.29819 -5.3232 5.0524 1 1
18 1 7.13143 0 0 0 0 0 1 3
19 1 8.02286 0.891429 0.891429 0 0 0 1 2
20 1 8.02136 2.64461 2.65363 4.06099 -2.05016 0.603152 1 1
21 1 8.91429 1.78286 0 0 0 0 1 3
22 1 9.81956 0.877398 2.64044 0.223831 3.44328 1.21073 1 1
23 1 9.80572 2.67429 0.891429 0 0 0 1 2
24 1 8.91199 0.0292463 1.74131 1.17666 -1.6848 -6.43294 1 1
25 1 10.7116 1.77837 1.79772 2.84785 3.78714 5.64303 1 1
26 1 10.6971 0 0 0 0 0 1 3
27 1 12.48 1.78286 0 0 0 0 1 3
28 1 11.5886 0.891429 0.891429 0 0 0 1 2
29 1 11.6025 2.66209 2.67886 -2.26982 0.14256 -3.54845 1 1
30 1 13.3922 0.843328 2.65118 -3.15439 -4.83714 -0.633836 1 1
31 1 13.3714 2.67429 0.891429 0 0 0 1 2
32 1 14.2696 1.81959 1.77718 3.55926 -0.0953238 -5.30462 1 1
33 1 14.2629 0 0 0 0 0 1 3
34 1 16.0457 1.78286 0 0 0 0 1 3
35 1 15.1543 0.891429 0.891429 0 0 0 1 2
36 1 15.1434 2.70138 2.62984 5.83861 1.32775 -3.71231 1 1
37 1 16.9666 0.865551 2.70162 2.95261 15.5212 2.45191 1 1
38 1 16.9371 2.67429 0.891429 0 0 0 1 2
39 1 16.026 0.0177902 1.81024 0.161123 -6.45714 0.356008 1 1
40 1 17.7962 1.77312 1.77847 10.7566 -2.23608 3.40767 1 1
41 1 17.8286 0 0 0 0 0 1 3
42 1 19.6114 1.78286 0 0 0 0 1 3
43 1 18.72 0.891429 0.891429 0 0 0 1 2
44 1 18.6948 2.6679 2.69744 0.674188 6.27983 7.61283 1 1
45 1 20.5138 0.899488 2.70244 -3.85142 -5.68767 6.53833 1 1
46 1 20.5029 2.67429 0.891429 0 0 0 1 2
47 1 0 3.56572 0 0 0 0 1 3
48 1 1.78286 5.34857 0 0 0 0 1 3
49 1 0.891429 4.45714 0.891429 0 0 0 1 2
50 1 0.860034 6.24455 2.71985 -4.68394 -9.29867 -4.37413 1 1
51 1 2.70533 4.41828 2.68092 -10.5964 -0.572966 -2.85941 1 1
52 1 2.67429 6.24 0.891429 0 0 0 1 2
53 1 3.58185 5.3442 1.80662 3.34926 3.34326 -11.2395 1 1
54 1 5.33 3.5572 1.78202 5.76921 -6.93171 0.442792 1 1
55 1 3.56572 3.56572 0 0 0 0 1 3
56 1 5.34857 5.34857 0 0 0 0 1 3
57 1 4.45714 4.45714 0.891429 0 0 0 1 2
58 1 4.47692 6.23501 2.68524 -3.2105 -0.0157654 11.1927 1 1
59 1 6.21324 4.44446 2.65058 0.0969959 2.25082 3.04882 1 1
60 1 6.24 6.24 0.891429 0 0 0 1 2
61 1 5.33506 7.12612 1.75056 -8.75917 -2.64104 -0.475477 1 1
62 1 7.12709 5.31669 1.79262 4.6694 3.74117 3.09619 1 1
63 1 7.13143 3.56572 0 0 0 0 1 3
64 1 8.93398 3.5563 1.77774 -5.09195 -3.19293 1.04463 1 1
65 1 8.02286 4.45714 0.891429 0 0 0 1 2
66 1 8.01129 6.26392 2.69155 2.08427 -5.5834 8.05259 1 1
67 1 8.91429 5.34857 0 0 0 0 1 3
68 1 9.80969 4.45783 2.63357 0.0199396 5.64607 1.24742 1 1
69 1 9.80572 6.24 0.891429 0 0 0 1 2
70 1 10.7269 5.33877 1.77193 0.815453 3.72596 9.53117 1 1
71 1 12.4898 3.56832 1.77213 3.23951 -4.47435 -8.65425 1 1
72 1 10.6971 3.56572 0 0 0 0 1 3
73 1 12.48 5.34857 0 0 0 0 1 3
74 1 11.5886 4.45714 0.891429 0 0 0 1 2
75 1 11.585 6.26383 2.73209 -7.15337 -0.526811 -7.33565 1 1
76 1 13.395 4.52021 2.66482 -1.40456 6.12192 0.0359535 1 1
77 1 13.3714 6.24 0.891429 0 0 0 1 2
78 1 14.2721 5.37902 1.80076 8.3828 -1.81091 4.79928 1 1
79 1 16.0346 3.59767 1.7859 -4.21345 0.00388118 2.34431 1 1
80 1 14.2629 3.56572 0 0 0 0 1 3
81 1 16.0457 5.34857 0 0 0 0 1 3
82 1 15.1543 4.45714 0.891429 0 0 0 1 2
83 1 15.1533 6.261 2.68189 -0.387246 0.484195 3.03055 1 1
84 1 16.9461 4.46779 2.70297 -1.76032 2.76666 -1.08207 1 1
85 1 16.9371 6.24 0.891429 0 0 0 1 2
86 1 17.7976 5.40033 1.77602 12.1574 10.4651 1.84292 1 1
87 1 19.6463 3.53994 1.81816 7.17071 6.09147 4.41206 1 1
88 1 0.00911966 5.36003 1.84645 -5.99273 -4.46867 0.938675 1 1
89 1 17.8286 3.56572 0 0 0 0 1 3
90 1 19.6114 5.34857 0 0 0 0 1 3
91 1 18.72 4.45714 0.891429 0 0 0 1 2
92 1 18.7377 6.22788 2.66822 1.69323 5.46162 -2.421 1 1
93 1 20.5076 4.46291 2.71188 6.49773 -8.26618 5.20003 1 1
94 1 20.5029 6.24 0.891429 0 0 0 1 2
95 1 19.6219 7.15552 1.7756 -1.17194 3.80176 -0.696152 1 1
96 1 1.76901 7.12304 1.81915 -6.28881 2.7828 -4.69699 1 1
97 1 0 7.13143 0 0 0 0 1 3
98 1 0.891429 8.02286 0.891429 0 0 0 1 2
99 1 2.69915 7.98643 2.67723 -1.5685 -0.592907 -5.87657 1 1
100 1 1.78286 8.91429 0 0 0 0 1 3
101 1 0.880478 9.80604 2.71738 8.46102 0.271534 1.33327 1 1
102 1 2.67429 9.80572 0.891429 0 0 0 1 2
103 1 1.76412 10.6848 1.82176 0.967338 3.56008 -4.23009 1 1
104 1 3.55103 8.89836 1.78377 -5.93685 0.94295 6.20143 1 1
105 1 3.56572 7.13143 0 0 0 0 1 3
106 1 4.45714 8.02286 0.891429 0 0 0 1 2
107 1 6.20001 8.01877 2.6921 -12.3441 -2.91746 1.69807 1 1
108 1 5.34857 8.91429 0 0 0 0 1 3
109 1 4.45339 9.84921 2.69341 -0.133646 -6.46448 2.75413 1 1
110 1 6.24 9.80572 0.891429 0 0 0 1 2
111 1 7.14976 8.90024 1.80062 2.79808 0.246135 -3.01675 1 1
112 1 8.91686 7.12506 1.7891 -6.48028 3.87214 1.07112 1 1
113 1 7.13143 7.13143 0 0 0 0 1 3
114 1 8.02286 8.02286 0.891429 0 0 0 1 2
115 1 9.78052 8.05147 2.7106 8.34096 -2.71603 0.726949 1 1
116 1 8.08162 9.81136 2.71143 1.61346 1.46302 8.76692 1 1
117 1 8.91429 8.91429 0 0 0 0 1 3
118 1 9.80572 9.80572 0.891429 0 0 0 1 2
119 1 10.6717 8.96248 1.79117 -2.99952 -1.42076 4.28404 1 1
120 1 12.5041 7.1583 1.81139 -4.34822 -4.07601 0.512107 1 1
121 1 10.6971 7.13143 0 0 0 0 1 3
122 1 11.5886 8.02286 0.891429 0 0 0 1 2
123 1 13.4092 8.02072 2.70117 4.39147 0.552164 2.77158 1 1
124 1 12.48 8.91429 0 0 0 0 1 3
125 1 11.5544 9.81861 2.72071 -5.38277 5.52294 4.68056 1 1
126 1 13.3714 9.80572 0.891429 0 0 0 1 2
127 1 12.4448 10.7025 1.78992 -4.28604 -0.386049 -2.45865 1 1
128 1 16.0562 7.13698 1.76316 -3.44262 -4.98441 -1.95784 1 1
129 1 14.2677 8.8845 1.79726 -11.4068 -6.29668 -2.58953 1 1
130 1 14.2629 7.13143 0 0 0 0 1 3
131 1 15.1543 8.02286 0.891429 0 0 0 1 2
132 1 16.9394 8.01508 2.69593 5.97016 0.474181 -2.41694 1 1
133 1 16.0457 8.91429 0 0 0 0 1 3
134 1 15.1454 9.76605 2.6942 -6.06509 5.50396 -1.98739 1 1
135 1 16.9371 9.80572 0.891429 0 0 0 1 2
136 1 16.076 10.7032 1.79306 6.06242 5.79755 2.50815 1 1
137 1 17.8614 8.92552 1.80176 -0.141669 -0.234854 5.65705 1 1
138 1 0.0319539 8.92919 1.78846 3.13934 -3.76146 9.47026 1 1
139 1 17.8286 7.13143 0 0 0 0 1 3
140 1 18.72 8.02286 0.891429 0 0 0 1 2
141 1 20.5324 8.00451 2.69749 -6.08624 7.0349 -3.02369 1 1
142 1 19.6114 8.91429 0 0 0 0 1 3
143 1 18.7208 9.82856 2.70072 4.32454 0.888071 0.0520989 1 1
144 1 20.5029 9.80572 0.891429 0 0 0 1 2
145 1 0 10.6971 0 0 0 0 1 3
146 1 1.78286 12.48 0 0 0 0 1 3
147 1 0.891429 11.5886 0.891429 0 0 0 1 2
148 1 2.6493 11.5985 2.69217 -2.1863 1.16973 -9.88294 1 1
149 1 0.873636 13.4095 2.63627 -2.94747 3.8095 -2.21133 1 1
150 1 2.67429 13.3714 0.891429 0 0 0 1 2
151 1 -0.0148988 12.4953 1.78082 -5.83518 2.8083 -2.71379 1 1
152 1 5.35369 10.7013 1.81739 0.298313 3.54828 -0.610188 1 1
153 1 3.54532 12.4543 1.78647 -3.09139 -0.469058 3.0519 1 1
154 1 3.56572 10.6971 0 0 0 0 1 3
155 1 5.34857 12.48 0 0 0 0 1 3
156 1 4.45714 11.5886 0.891429 0 0 0 1 2
157 1 6.23008 11.6253 2.68319 -5.48571 -2.6373 5.25446 1 1
158 1 4.42768 13.3701 2.63833 -0.887656 -2.09564 -1.28621 1 1
159 1 6.24 13.3714 0.891429 0 0 0 1 2
160 1 5.30173 14.2394 1.79572 3.22597 0.55184 0.275812 1 1
161 1 8.93672 10.6763 1.81698 3.35626 -4.13209 2.71379 1 1
162 1 7.14455 12.462 1.81451 5.34643 -7.24606 -3.32903 1 1
163 1 7.13143 10.6971 0 0 0 0 1 3
164 1 8.02286 11.5886 0.891429 0 0 0 1 2
165 1 8.91429 12.48 0 0 0 0 1 3
166 1 9.77622 11.6222 2.67062 0.620999 0.894136 2.64378 1 1
167 1 8.03066 13.3667 2.69059 3.11404 -5.0363 0.747785 1 1
168 1 9.80572 13.3714 0.891429 0 0 0 1 2
169 1 10.6833 12.4465 1.75333 -15.1404 -1.78696 -2.51329 1 1
170 1 10.6971 10.6971 0 0 0 0 1 3
171 1 12.48 12.48 0 0 0 0 1 3
172 1 11.5886 11.5886 0.891429 0 0 0 1 2
173 1 13.333 11.5814 2.71828 2.58383 5.48676 -3.55681 1 1
174 1 11.5743 13.3304 2.64873 5.69391 -3.4896 -5.43322 1 1
175 1 13.3714 13.3714 0.891429 0 0 0 1 2
176 1 12.4821 14.2166 1.77394 -5.70546 10.2488 -0.823589 1 1
177 1 14.2381 12.4875 1.815 1.70851 0.570763 0.0610948 1 1
178 1 14.2629 10.6971 0 0 0 0 1 3
179 1 16.0457 12.48 0 0 0 0 1 3
180 1 15.1543 11.5886 0.891429 0 0 0 1 2
181 1 16.9753 11.5933 2.69867 5.61055 4.21663 3.3339 1 1
182 1 15.1975 13.3644 2.72233 0.652848 -5.1289 7.4285 1 1
183 1 16.9371 13.3714 0.891429 0 0 0 1 2
184 1 17.8321 12.5111 1.80869 7.12477 -1.4743 -11.6126 1 1
185 1 19.6209 10.6919 1.79132 12.1604 4.45582 -5.46495 1 1
186 1 17.8286 10.6971 0 0 0 0 1 3
187 1 19.6114 12.48 0 0 0 0 1 3
188 1 18.72 11.5886 0.891429 0 0 0 1 2
189 1 20.4638 11.6405 2.71427 1.28366 -1.92993 1.43149 1 1
190 1 18.6877 13.3838 2.67385 5.57679 1.67138 -8.51123 1 1
191 1 20.5029 13.3714 0.891429 0 0 0 1 2
192 1 19.6203 14.2767 1.7754 -5.97373 -2.792 -1.05767 1 1
193 1 1.78091 14.2732 1.75846 1.3588 -0.440384 -6.70022 1 1
194 1 0 14.2629 0 0 0 0 1 3
195 1 1.78286 16.0457 0 0 0 0 1 3
196 1 0.891429 15.1543 0.891429 0 0 0 1 2
197 1 0.867385 16.9474 2.69673 8.14064 0.360792 2.67055 1 1
198 1 2.63848 15.1268 2.68898 1.20589 3.00609 -0.23056 1 1
199 1 2.67429 16.9371 0.891429 0 0 0 1 2
200 1 0.0123832 16.0517 1.75664 -1.37639 6.92998 3.85151 1 1
201 1 3.55742 16.0811 1.7752 2.57276 0.224895 2.48883 1 1
202 1 3.56572 14.2629 0 0 0 0 1 3
203 1 5.34857 16.0457 0 0 0 0 1 3
204 1 4.45714 15.1543 0.891429 0 0 0 1 2
205 1 4.45415 16.9627 2.63936 -10.54 -7.38651 2.39082 1 1
206 1 6.18786 15.1413 2.70735 -1.19829 4.02734 1.93778 1 1
207 1 6.24 16.9371 0.891429 0 0 0 1 2
208 1 7.10394 16.0474 1.78518 -0.807908 3.74407 5.24626 1 1
209 1 5.36376 17.8521 1.74199 -4.3842 -5.07641 -0.3922 1 1
210 1 8.89148 14.2585 1.80449 0.165186 -7.59144 -1.4633 1 1
211 1 7.13143 14.2629 0 0 0 0 1 3
212 1 8.02286 15.1543 0.891429 0 0 0 1 2
213 1 7.92864 16.9322 2.69405 -0.972627 0.630601 3.61873 1 1
214 1 8.91429 16.0457 0 0 0 0 1 3
215 1 9.7866 15.1435 2.68347 -4.23255 1.4161 1.27557 1 1
216 1 9.80572 16.9371 0.891429 0 0 0 1 2
217 1 8.91353 17.8603 1.80031 1.06533 -1.00443 -3.78947 1 1
218 1 10.6925 16.0188 1.79903 4.4262 3.37335 1.49581 1 1
219 1 10.6971 14.2629 0 0 0 0 1 3
220 1 12.48 16.0457 0 0 0 0 1 3
221 1 11.5886 15.1543 0.891429 0 0 0 1 2
222 1 11.6067 16.9282 2.73333 2.73196 2.9757 0.709639 1 1
223 1 13.3736 15.1094 2.65631 4.41735 -2.04741 -4.08189 1 1
224 1 13.3714 16.9371 0.891429 0 0 0 1 2
225 1 12.4771 17.8565 1.8208 -9.80479 -1.09697 1.73354 1 1
226 1 16.0321 14.2998 1.80459 6.34997 4.85279 0.97805 1 1
227 1 14.2443 16.0443 1.75177 10.0317 4.95149 -0.860658 1 1
228 1 14.2629 14.2629 0 0 0 0 1 3
229 1 16.0457 16.0457 0 0 0 0 1 3
230 1 15.1543 15.1543 0.891429 0 0 0 1 2
231 1 15.1236 16.9386 2.68446 2.12741 -1.76695 1.01089 1 1
232 1 16.9105 15.1675 2.68796 0.592569 0.0186799 -6.4888 1 1
233 1 16.9371 16.9371 0.891429 0 0 0 1 2
234 1 17.8117 16.0472 1.78618 -0.470098 13.3791 5.29362 1 1
235 1 17.8286 14.2629 0 0 0 0 1 3
236 1 19.6114 16.0457 0 0 0 0 1 3
237 1 18.72 15.1543 0.891429 0 0 0 1 2
238 1 18.6874 16.9199 2.69002 -0.424531 6.21358 -2.10985 1 1
239 1 20.5303 15.2066 2.69701 0.722853 -0.965896 4.79516 1 1
240 1 20.5029 16.9371 0.891429 0 0 0 1 2
241 1 19.5939 17.8281 1.79359 -3.24896 2.1626 -4.69961 1 1
242 1 1.80043 17.8262 1.77197 -3.90808 -4.07285 8.26508 1 1
243 1 0 17.8286 0 0 0 0 1 3
244 1 1.78286 19.6114 0 0 0 0 1 3
245 1 0.891429 18.72 0.891429 0 0 0 1 2
246 1 0.861169 20.5452 2.69616 5.31444 -0.641181 2.20106 1 1
247 1 2.615 18.7227 2.68744 -4.47958 0.467064 -2.37793 1 1
248 1 2.67429 20.5029 0.891429 0 0 0 1 2
249 1 3.56042 19.5963 1.77259 -8.9569 -3.14435 8.70572 1 1
250 1 21.3372 19.6317 1.79996 1.99519 3.2571 -4.69461 1 1
251 1 5.32828 0.0408088 1.80408 -4.47842 -1.90802 4.98901 1 1
252 1 3.56572 17.8286 0 0 0 0 1 3
253 1 5.34857 19.6114 0 0 0 0 1 3
254 1 4.45714 18.72 0.891429 0 0 0 1 2
255 1 4.42355 20.4944 2.65888 3.50311 -7.39933 5.02235 1 1
256 1 6.22103 18.7661 2.65869 -3.28876 -0.90402 4.12797 1 1
257 1 6.24 20.5029 0.891429 0 0 0 1 2
258 1 7.11548 19.62 1.77254 -1.85596 -4.00971 4.32791 1 1
259 1 7.13143 17.8286 0 0 0 0 1 3
260 1 8.02286 18.72 0.891429 0 0 0 1 2
261 1 8.03533 20.4834 2.64381 -5.79183 8.44449 8.4024 1 1
262 1 8.91429 19.6114 0 0 0 0 1 3
263 1 9.81447 18.7199 2.71198 -1.85814 -3.58797 -2.67468 1 1
264 1 9.80572 20.5029 0.891429 0 0 0 1 2
265 1 10.6813 19.6165 1.76908 -0.941866 1.23599 3.4124 1 1
266 1 12.514 21.3783 1.77327 -3.35286 -1.16149 13.1983 1 1
267 1 10.6971 17.8286 0 0 0 0 1 3
268 1 12.48 19.6114 0 0 0 0 1 3
269 1 11.5886 18.72 0.891429 0 0 0 1 2
270 1 11.5961 20.515 2.6987 9.88399 -5.19203 -1.41614 1 1
271 1 13.4096 18.7218 2.69128 4.09874 -11.2242 -3.89681 1 1
272 1 13.3714 20.5029 0.891429 0 0 0 1 2
273 1 14.2973 19.6197 1.77637 7.19957 -5.80222 2.94079 1 1
274 1 16.0525 17.8411 1.76598 5.43046 -6.58902 5.51157 1 1
275 1 14.2629 17.8286 0 0 0 0 1 3
276 1 16.0457 19.6114 0 0 0 0 1 3
277 1 15.1543 18.72 0.891429 0 0 0 1 2
278 1 15.1651 20.4836 2.68511 -1.15346 1.77645 3.74652 1 1
279 1 16.9568 18.7069 2.6602 6.33348 -1.27837 3.34029 1 1
280 1 16.9371 20.5029 0.891429 0 0 0 1 2
281 1 19.5964 0.0132653 1.82005 7.81825 2.01878 4.4174 1 1
282 1 17.8548 19.5611 1.79809 -4.25622 -0.571743 4.43648 1 1
283 1 17.8286 17.8286 0 0 0 0 1 3
284 1 19.6114 19.6114 0 0 0 0 1 3
285 1 18.72 18.72 0.891429 0 0 0 1 2
286 1 18.7316 20.4783 2.72194 -5.17981 9.32962 3.9513 1 1
287 1 20.4406 18.7062 2.70645 1.75708 -4.74918 -0.754861 1 1
288 1 20.5029 20.5029 0.891429 0 0 0 1 2
289 1 1.73767 1.78619 3.63517 0.220299 3.1828 0.169578 1 1
290 1 0.872155 0.891328 4.5039 -0.514421 -3.60772 7.79994 1 1
291 1 2.64873 2.64589 4.54417 -1.93592 1.01461 2.06306 1 1
292 1 1.72786 0.0143578 5.37556 -2.96403 2.06232 -0.86058 1 1
293 1 1.79562 3.5839 5.37416 -3.2365 -0.449727 -1.93516 1 1
294 1 0.00380573 1.777 5.41533 -9.48275 0.200694 -0.189874 1 1
295 1 0.000751379 0.0225602 3.60953 -3.51408 2.64237 6.00641 1 1
296 1 3.51248 1.76598 5.40949 -8.76544 6.61767 3.81287 1 1
297 1 5.32088 1.822 3.59295 0.815346 3.20118 5.39822 1 1
298 1 4.41532 0.953672 4.51396 -2.65513 -4.3051 -5.87065 1 1
299 1 6.24983 0.903404 6.25663 -3.02459 3.10445 13.0835 1 1
300 1 6.20876 2.66524 4.49811 -2.15171 -2.6124 -1.45045 1 1
301 1 3.54763 -0.0101546 3.58367 -1.86815 -1.52841 0.262242 1 1
302 1 7.18589 21.3996 3.56797 -2.84346 7.83711 5.94805 1 1
303 1 5.30868 0.0709881 5.37838 7.86209 2.85507 0.919034 1 1
304 1 7.15399 3.56496 3.57064 2.27996 2.57701 -2.45335 1 1
305 1 7.17879 1.80631 5.37179 8.93077 1.38475 -0.278922 1 1
306 1 8.94741 1.78112 3.5273 3.65693 -1.29221 6.14014 1 1
307 1 8.06392 0.904189 4.43683 -3.79838 2.32689 -4.7161 1 1
308 1 8.0151 2.70315 6.25878 -6.54365 -3.23072 1.80315 1 1
309 1 9.79126 0.882413 6.24908 -8.28849 0.510795 3.70507 1 1
310 1 9.81242 2.68165 4.49346 -3.62675 -0.343704 1.70432 1 1
311 1 10.6673 1.77552 5.35802 1.09135 -2.48614 -1.95393 1 1
312 1 12.5181 1.7892 3.5917 5.71034 1.70689 -2.97423 1 1
313 1 11.5802 0.884674 4.45685 2.25257 -5.42213 -4.52778 1 1
314 1 11.5755 2.67323 6.25353 6.67159 1.41693 -0.83694 1 1
315 1 13.3634 2.68936 4.46265 3.35456 -10.1639 3.77822 1 1
316 1 13.3981 0.856928 6.3104 0.290857 -5.03833 -7.06386 1 1
317 1 12.42 3.58344 5.33384 4.55993 -1.9953 0.573152 1 1
318 1 14.2563 1.72818 5.34792 -5.83279 0.0244563 2.40273 1 1
319 1 12.5401 21.3659 5.36383 6.52437 -1.64231 4.12852 1 1
320 1 14.2629 3.55185 3.56049 3.72875 0.448962 -2.31388 1 1
321 1 16.063 1.76107 3.58586 -1.02056 1.21386 -0.167189 1 1
322 1 15.1208 0.856289 4.45754 -6.62487 -0.453141 -5.53896 1 1
323 1 15.1642 2.68592 6.22209 -4.74472 16.1647 4.99797 1 1
324 1 16.9498 2.68625 4.46417 -9.01966 -2.09429 7.11208 1 1
325 1 17.8131 1.78782 5.36123 0.10298 5.07923 2.44395 1 1
326 1 16.0501 21.3518 5.34159 11.9187 0.645228 -3.0307 1 1
327 1 19.6325 1.79241 3.58219 -8.43459 2.9258 -0.870358 1 1
328 1 18.7294 0.885543 4.48046 -4.40935 -0.799497 0.433622 1 1
329 1 20.5538 2.70655 4.52769 0.903514 1.36493 -5.18195 1 1
330 1 17.8278 21.3652 3.60954 4.4503 3.0851 -1.21709 1 1
331 1 19.6261 0.0271064 5.3648 -10.7784 2.75056 -1.5046 1 1
332 1 0.0189087 3.54728 3.60762 -2.2469 -2.55 -1.03851 1 1
333 1 1.79685 5.32412 3.61628 4.76003 -0.457174 -1.9973 1 1
334 1 0.926769 4.44869 4.5268 -2.74175 8.317 -2.02385 1 1
335 1 2.65124 4.46193 6.24687 4.26835 1.71544 -5.81117 1 1
336 1 2.67085 6.20808 4.52117 -0.181909 -6.64877 -3.3629 1 1
337 1 3.59831 3.51465 3.58911 -7.48441 12.5013 -0.868883 1 1
338 1 21.3884 5.30795 5.38053 1.07983 2.04265 -8.8353 1 1
339 1 3.60034 5.35857 5.3882 -3.84446 2.89224 11.3805 1 1
340 1 5.29991 3.5733 5.37502 -3.07322 0.94681 3.17729 1 1
341 1 5.33491 5.3365 3.57618 2.84237 -2.35225 1.83279 1 1
342 1 4.49704 4.4697 4.45514 2.76359 5.69851 -1.38971 1 1
343 1 4.4396 6.25124 6.2545 3.89856 0.0712484 -3.92814 1 1
344 1 6.23255 6.25146 4.46052 3.55042 4.9588 4.3174 1 1
345 1 7.13316 5.36678 5.38191 2.88711 -7.32732 -0.231587 1 1
346 1 5.37046 7.14484 5.35257 1.40071 -1.26441 4.60028 1 1
347 1 6.23297 4.44333 6.31103 -4.073 3.63603 8.70437 1 1
348 1 8.93063 3.5288 5.36434 0.993573 -1.86897 0.659172 1 1
349 1 10.6905 3.59783 3.55805 6.58377 -0.427356 -1.3041 1 1
350 1 8.89242 5.38403 3.58215 0.847846 2.96091 9.33949 1 1
351 1 8.03159 4.44121 4.4646 -5.90339 -1.08956 -2.80845 1 1
352 1 8.05315 6.28137 6.28812 7.13857 -3.46793 -0.292017 1 1
353 1 9.79497 4.44909 6.28667 1.55198 -0.312162 -3.51374 1 1
354 1 9.79623 6.29685 4.48657 -6.05759 3.27983 -1.955 1 1
355 1 10.6712 5.35933 5.38113 -5.70533 -0.0951681 4.42651 1 1
356 1 12.49 5.42844 3.55578 8.57226 7.02498 -5.64903 1 1
357 1 11.5507 4.5468 4.4554 -4.74157 2.58879 5.93409 1 1
358 1 13.4015 6.27805 4.44051 -4.24602 2.91465 -2.56922 1 1
359 1 14.2523 5.37005 5.3411 3.93194 0.224073 2.59562 1 1
360 1 16.11 3.54563 5.3176 -4.48896 -0.0157495 2.08414 1 1
361 1 17.8413 3.58419 3.55528 3.54474 3.03444 -0.844626 1 1
362 1 16.0222 5.35457 3.56569 0.0834882 -0.124407 -6.63852 1 1
363 1 15.1561 4.45594 4.45144 -3.9 10.5034 -11.6382 1 1
364 1 16.9327 6.22664 4.44478 0.302467 8.56268 -1.78288 1 1
365 1 16.9395 4.49168 6.24338 0.496461 -8.69156 2.74508 1 1
366 1 16.0493 7.12079 5.36231 6.88076 4.20979 -10.4487 1 1
367 1 15.12 6.2341 6.23858 1.40952 -0.142228 -8.00386 1 1
368 1 19.6238 3.59205 5.37906 -2.46692 -1.01105 -1.73418 1 1
369 1 17.8468 5.35295 5.33158 10.0637 2.54038 -0.72622 1 1
370 1 19.6454 5.36 3.55796 -5.30327 1.4173 -6.63763 1 1
371 1 18.756 4.46345 4.45376 -4.42193 -1.82121 4.36953 1 1
372 1 20.5415 4.47618 6.2765 1.32671 -5.14301 -4.49373 1 1
373 1 20.4787 6.23887 4.50155 -4.90386 1.21954 -0.906053 1 1
374 1 19.5719 7.1395 5.37269 0.0136638 -3.17746 2.87272 1 1
375 1 21.3808 7.13499 3.62199 2.01239 -6.29636 -2.12253 1 1
376 1 1.75606 7.13187 5.36525 1.43356 -1.52833 8.56675 1 1
377 1 1.79155 8.91381 3.5697 -1.1108 -5.12805 -11.5155 1 1
378 1 0.889937 7.97467 4.46313 10.2978 5.19559 -5.07766 1 1
379 1 2.66817 8.03733 6.25717 2.39302 4.75532 -2.53627 1 1
380 1 0.895407 9.80303 6.19807 0.669691 8.999 -4.62226 1 1
381 1 2.68363 9.77605 4.4762 11.0013 6.20825 -8.67184 1 1
382 1 21.3978 8.86907 5.34646 1.91474 -3.35834 -2.7576 1 1
383 1 1.77863 10.6961 5.33933 0.967692 -2.6233 -3.32412 1 1
384 1 3.58795 7.09413 3.65566 4.33661 2.14099 5.90766 1 1
385 1 7.13914 7.14789 3.55586 6.12332 5.49062 -0.0422478 1 1
386 1 3.56554 10.687 3.58433 9.70135 2.10605 -8.42079 1 1
387 1 3.56563 8.90019 5.37999 1.53327 -2.58442 6.31845 1 1
388 1 5.30128 8.87105 3.59453 1.21441 -2.98474 6.54984 1 1
389 1 4.43184 8.02599 4.48873 -0.245766 3.08233 -8.23202 1 1
390 1 4.43207 9.80879 6.21201 1.01378 9.33021 0.494226 1 1
391 1 6.27872 9.83109 4.48139 5.98448 2.06612 -1.97857 1 1
392 1 8.94206 7.21256 5.36901 6.35195 0.625421 0.144859 1 1
393 1 7.1461 8.91314 5.41172 0.916826 6.10601 -1.31152 1 1
394 1 8.86043 8.9373 3.5976 -1.6672 1.09652 0.766953 1 1
395 1 8.02261 8.03812 4.47707 -0.873278 1.6605 -5.14428 1 1
396 1 9.82492 9.83307 4.53518 7.27095 -0.27905 -2.85151 1 1
397 1 10.7614 8.97949 5.43342 0.511541 1.06614 -1.41658 1 1
398 1 10.679 10.73 3.5807 -1.34335 3.31329 0.312584 1 1
399 1 9.78486 8.08687 6.27126 -1.90265 -2.07183 -0.819087 1 1
400 1 12.5026 7.13267 5.35514 3.86401 2.80131 -4.81132 1 1
401 1 10.7016 7.17915 3.55601 4.36946 9.19233 0.71734 1 1
402 1 12.4673 8.88109 3.56996 2.19366 -3.93564 -3.7734 1 1
403 1 11.5728 8.04393 4.4703 -5.26635 -0.848524 -4.50265 1 1
404 1 13.3325 9.83032 4.51799 -0.400646 -4.6564 -5.05267 1 1
405 1 14.3079 7.17412 3.58963 4.31033 0.930399 7.3722 1 1
406 1 14.263 8.93813 5.42795 4.90206 7.29814 -4.65522 1 1
407 1 17.8208 7.08249 3.573 -0.0295901 -4.59843 5.6463 1 1
408 1 16.0644 8.90631 3.58211 2.68823 5.06748 0.0404367 1 1
409 1 15.1856 8.02335 4.5038 -8.3029 1.05682 -7.45565 1 1
410 1 16.9909 9.81243 4.46112 -5.51613 -8.28398 -1.08914 1 1
411 1 16.0615 10.6707 5.35725 6.88676 -2.27798 1.09668 1 1
412 1 16.9318 8.00093 6.26794 4.86063 12.4718 -6.69868 1 1
413 1 17.8211 8.92342 5.36542 -0.567258 3.96827 -7.05593 1 1
414 1 19.615 8.94223 3.55951 0.323879 -3.17162 0.214664 1 1
415 1 18.7038 8.00184 4.47084 0.723117 5.70443 -8.91162 1 1
416 1 18.7033 9.81629 6.23081 -1.84027 -2.78259 -1.66951 1 1
417 1 20.491 9.80031 4.47303 0.453981 6.86183 -9.93948 1 1
418 1 20.4955 8.01932 6.2335 2.72367 -4.86519 3.61171 1 1
419 1 19.6108 10.6973 5.38407 -2.10238 1.55928 9.17639 1 1
420 1 0.00976744 10.7046 3.6196 -3.13419 6.08426 -6.35969 1 1
421 1 1.76193 12.4775 3.62872 -0.240592 -0.0370235 -10.4268 1 1
422 1 0.87076 11.5943 4.4738 -3.59172 6.30477 -9.18586 1 1
423 1 2.6858 11.5729 6.2282 10.5375 2.09636 17.4961 1 1
424 1 0.871627 13.3566 6.28436 2.15149 -5.78255 0.208811 1 1
425 1 2.6943 13.3415 4.48797 5.16684 6.52382 -4.60695 1 1
426 1 21.3651 12.5154 5.34699 -7.35736 -2.37553 1.1449 1 1
427 1 5.32198 10.6714 5.38923 4.687 0.993128 -4.04919 1 1
428 1 3.53778 14.2364 3.55448 -3.92431 -2.09946 2.24369 1 1
429 1 3.58877 12.4588 5.38344 5.63764 -3.36917 -3.79714 1 1
430 1 5.36369 12.4695 3.576 -6.16079 3.32075 6.25754 1 1
431 1 4.50076 11.5722 4.47701 -3.84223 -3.76128 -0.551787 1 1
432 1 6.23157 13.3416 4.48414 1.98754 5.89565 -1.81535 1 1
433 1 7.08485 14.1897 3.55254 -0.975563 -2.76949 2.32008 1 1
434 1 6.22584 11.5855 6.28599 3.53689 -3.39981 0.411116 1 1
435 1 7.13836 10.7408 3.59846 6.78299 0.190255 0.263659 1 1
436 1 7.11576 12.4787 5.41369 3.95759 -3.15892 -2.4975 1 1
437 1 8.90483 10.6968 5.43273 -3.37411 -5.17814 1.45521 1 1
438 1 8.899 12.4303 3.59895 -3.31001 -5.14468 2.302 1 1
439 1 8.02322 11.5542 4.52188 5.36623 5.32652 -3.38049 1 1
440 1 9.78395 11.5714 6.26347 3.26253 9.41687 5.80479 1 1
441 1 8.0571 13.3817 6.23557 4.76119 -0.336923 -8.62288 1 1
442 1 9.8294 13.3993 4.50426 5.77536 -6.90708 4.87983 1 1
443 1 10.6688 14.2552 3.57069 1.59375 -4.37154 -0.268448 1 1
444 1 12.4958 10.7315 5.39155 0.0443037 0.128469 -2.48147 1 1
445 1 10.6711 12.4633 5.36663 -3.89438 1.17387 -3.08851 1 1
446 1 12.4468 12.4913 3.57529 -6.29479 -0.0230511 -3.97912 1 1
447 1 11.5816 11.6072 4.46611 1.31475 -6.40119 4.45761 1 1
448 1 13.4083 11.6162 6.27031 -0.691177 3.74499 -2.80988 1 1
449 1 11.5507 13.3481 6.2494 4.85024 8.61023 7.267 1 1
450 1 13.3656 13.3278 4.49785 8.10945 -6.02322 0.401614 1 1
451 1 14.2134 10.6729 3.57407 -5.25773 7.24561 6.81469 1 1
452 1 14.277 12.4946 5.36803 -2.0155 -2.75592 2.96788 1 1
453 1 16.0742 12.4827 3.58792 -0.716003 1.36287 3.32852 1 1
454 1 15.156 11.5937 4.49339 1.9764 -0.353163 2.33438 1 1
455 1 16.9324 11.6061 6.27596 -1.66583 -3.46352 1.33048 1 1
456 1 16.9415 13.3794 4.51511 0.978322 9.15968 2.69593 1 1
457 1 17.8314 12.5091 5.38799 1.21753 2.27427 1.7527 1 1
458 1 15.1457 13.397 6.27937 -2.97585 7.12668 -3.45766 1 1
459 1 17.8299 10.719 3.57447 -2.51054 -2.73222 -1.7091 1 1
460 1 19.5855 12.5414 3.59318 -4.78947 5.56203 -10.0309 1 1
461 1 18.6921 11.6061 4.46592 0.681318 -0.189557 -3.72839 1 1
462 1 18.7296 13.3784 6.2577 2.4074 -6.12281 -6.90332 1 1
463 1 20.5091 13.3938 4.46377 4.03446 -1.37275 -10.5708 1 1
464 1 20.5246 11.5779 6.23161 5.46791 7.77178 0.832266 1 1
465 1 1.82655 14.2516 5.40549 3.06999 -1.82793 -2.32699 1 1
466 1 1.74634 16.0582 3.57806 -6.54238 4.67032 -6.5096 1 1
467 1 0.86652 15.1334 4.5194 5.06699 -11.5586 -9.36236 1 1
468 1 2.69709 15.134 6.28944 2.14056 2.71275 -5.75951 1 1
469 1 2.67577 16.9393 4.48353 -6.72674 -1.45463 9.92758 1 1
470 1 0.00809401 16.0479 5.39654 -10.3259 5.5904 5.29261 1 1
471 1 0.0104616 14.2825 3.56641 -1.68234 0.0690198 -1.70979 1 1
472 1 1.73657 17.8325 5.39253 -7.12826 1.04277 5.49866 1 1
473 1 5.30489 14.2467 5.36136 -1.71838 -5.16538 -1.704 1 1
474 1 3.53185 16.0269 5.33552 0.658463 -4.32434 -4.01361 1 1
475 1 5.30693 16.0315 3.54716 -0.700744 -1.6567 -1.65561 1 1
476 1 4.37824 15.1521 4.44041 -2.61223 -2.08958 5.41626 1 1
477 1 4.39283 16.9018 6.29268 -2.07866 -3.22703 0.942949 1 1
478 1 6.18999 15.1599 6.23852 5.33521 -6.56607 2.50129 1 1
479 1 6.22103 16.9174 4.4358 3.02047 -4.01355 7.02168 1 1
480 1 7.09808 16.0113 5.32726 -3.21503 9.39785 -1.22218 1 1
481 1 8.95526 14.2855 5.34381 2.60541 -7.27294 -2.73398 1 1
482 1 8.94137 16.0443 3.54025 -7.2035 -3.6871 -7.66541 1 1
483 1 8.01609 15.103 4.47242 -9.88303 -5.62942 -3.75061 1 1
484 1 8.00745 16.9105 6.2092 -2.38669 -2.52011 5.43593 1 1
485 1 9.82598 15.1229 6.28436 -2.8311 0.409495 -6.48613 1 1
486 1 9.79245 16.9159 4.479 6.79282 3.92436 0.106263 1 1
487 1 10.7431 16.0368 5.37047 -0.209417 -9.25946 2.84682 1 1
488 1 8.91839 17.7727 5.3437 -0.881351 6.16895 10.1036 1 1
489 1 10.6528 17.8425 3.61246 3.55233 -1.94673 2.42528 1 1
490 1 12.4586 14.256 5.35734 -6.50858 -6.0378 -2.12015 1 1
491 1 12.4999 16.0041 3.54574 5.20169 -12.2303 0.896925 1 1
492 1 11.595 15.1446 4.45852 0.293476 1.71 -3.22285 1 1
493 1 11.6147 16.9458 6.19862 2.50624 -3.22111 1.90768 1 1
494 1 13.3779 16.8826 4.4795 -0.688898 -1.21975 -6.8044 1 1
495 1 13.4294 15.1305 6.2411 0.297646 5.67019 -3.02626 1 1
496 1 12.4881 17.7482 5.30911 -4.58412 0.199041 -8.2098 1 1
497 1 14.2338 14.2485 3.59707 5.26675 0.243434 3.7879 1 1
498 1 16.0211 14.3081 5.36817 9.54453 1.33436 -1.79192 1 1
499 1 17.8222 14.2829 3.6222 -0.185021 -6.84177 -2.67293 1 1
500 1 14.2587 16.0214 5.30047 4.53922 5.13289 4.8428 1 1
501 1 14.226 17.817 3.61551 -8.05526 0.97754 -5.25636 1 1
502 1 15.9832 16.0227 3.56981 -4.24474 3.78185 4.75551 1 1
503 1 15.1308 15.1486 4.44066 5.16366 -2.23013 4.13181 1 1
504 1 16.9368 16.8775 4.51251 4.84861 -0.648515 1.64349 1 1
505 1 16.939 15.1405 6.28337 -4.39187 -4.12478 -4.01711 1 1
506 1 17.8021 16.0488 5.37615 -1.91771 -10.4284 2.88435 1 1
507 1 19.5751 14.2697 5.37181 -1.97672 0.366725 9.05403 1 1
508 1 19.6215 16.0558 3.54351 5.73899 -0.14403 0.994661 1 1
509 1 18.7382 15.1657 4.49839 7.79865 2.79716 -2.52072 1 1
510 1 20.5067 16.9474 4.48495 -4.12098 -0.483668 -3.02138 1 1
511 1 19.5991 17.8079 5.38693 -4.212 -2.53877 7.44664 1 1
512 1 20.4878 15.1286 6.24177 -3.34571 -8.60215 3.87875 1 1
513 1 1.76155 19.6137 3.5568 1.72369 9.35112 -0.132948 1 1
514 1 0.836057 18.6943 4.46936 -3.96058 4.08493 -7.20825 1 1
515 1 0.84646 20.5158 6.29915 0.438229 -13.4547 13.198 1 1
516 1 2.64892 20.5438 4.51934 -9.29603 5.27128 -1.21501 1 1
517 1 21.3921 17.8205 3.57215 -0.943529 -12.0632 0.967998 1 1
518 1 21.4047 19.558 5.36273 6.70175 -1.24426 6.81308 1 1
519 1 2.64788 18.7591 6.2802 -1.14483 -1.62084 3.32867 1 1
520 1 5.27395 17.844 5.40586 5.96591 4.22963 9.5403 1 1
521 1 3.55198 17.8314 3.57476 -6.8599 -2.37605 -2.73253 1 1
522 1 3.54593 19.6874 5.3415 2.47918 1.44241 1.67141 1 1
523 1 5.33201 19.6288 3.54568 -1.6598 5.19716 2.66474 1 1
524 1 4.4558 18.7245 4.44901 2.19507 2.87535 2.36136 1 1
525 1 4.41589 20.5418 6.28249 1.37734 7.60409 -2.38424 1 1
526 1 6.11941 18.7498 6.27196 -4.62916 -2.38975 0.057401 1 1
527 1 6.25875 20.5457 4.45571 0.000719246 7.19425 -2.7456 1 1
528 1 7.10226 17.8387 3.57086 1.2838 -0.131359 -0.885717 1 1
529 1 7.05726 19.616 5.32365 -7.39213 3.27604 1.30511 1 1
530 1 8.88764 0.00555141 5.37064 3.41296 -5.70125 -7.45898 1 1
531 1 8.90987 19.5743 3.5804 -3.1796 1.07898 -4.74951 1 1
532 1 8.01018 18.6881 4.46781 -0.0235857 1.89036 7.12719 1 1
533 1 7.96419 20.4876 6.23499 5.00734 -14.0898 -1.25175 1 1
534 1 9.79296 18.7141 6.21685 -3.63431 -0.435983 1.90409 1 1
535 1 9.80283 20.4975 4.46421 2.05987 0.442512 7.4604 1 1
536 1 10.7012 19.6179 5.37679 7.36801 2.81556 2.88515 1 1
537 1 10.7033 0.00974742 3.53269 -4.85766 -4.99246 3.14708 1 1
538 1 12.4449 19.6023 3.58322 -1.77006 3.79262 7.15567 1 1
539 1 11.5899 18.7352 4.47467 -0.890644 -0.683538 3.39268 1 1
540 1 13.4336 18.6784 6.23976 -3.02953 -2.771 1.40614 1 1
541 1 13.3319 20.4531 4.48242 -7.50609 -7.26715 4.9713 1 1
542 1 16.0696 17.7633 5.34008 -1.62028 -0.602363 -1.07959 1 1
543 1 14.2278 21.3631 3.58286 6.26331 -4.3612 2.55981 1 1
544 1 14.2934 19.5785 5.34294 7.5755 1.6945 0.893469 1 1
545 1 16.1027 19.557 3.58105 -1.01332 0.971393 -2.98632 1 1
546 1 15.1917 18.6539 4.46226 3.25678 -2.40124 -1.31412 1 1
547 1 16.9317 18.67 6.25849 -12.9634 -9.00879 -1.9041 1 1
548 1 16.941 20.4791 4.50834 3.73477 -4.71524 -4.8823 1 1
549 1 17.8283 19.618 5.42243 0.163574 0.976793 1.12359 1 1
550 1 17.825 17.8129 3.56936 -3.83404 -0.096715 0.108191 1 1
551 1 19.5848 19.6182 3.63524 2.6615 8.65068 4.90339 1 1
552 1 18.6772 18.7106 4.51202 -2.11649 -2.90516 -2.34493 1 1
553 1 18.7103 20.5091 6.32038 2.48311 -2.16154 -2.8073 1 1
554 1 20.4816 18.7257 6.30574 1.7678 4.95351 7.20199 1 1
555 1 20.4847 20.5253 4.53111 7.72074 -1.74989 3.14411 1 1
556 1 2.61055 0.892419 6.31441 3.27682 -6.6108 1.18027 1 1
557 1 0.905979 2.6931 6.26384 -4.18537 -3.08292 -8.4381 1 1