ITEM: TIMESTEP
1100
ITEM: NUMBER OF ATOMS
2952
ITEM: BOX BOUNDS pp pp mm
0.0000000000000000e+00 2.1394294200000001e+01
0.0000000000000000e+00 2.1394294200000001e+01
-4.4571446250000002e-01 5.3485735500000004e+01
ITEM: ATOMS id type x y z vx vy vz v_is_diamond c_structure_type
1 1 0 0 0 0 0 0 1 3
2 1 1.78286 1.78286 0 0 0 0 1 3
3 1 0.891429 0.891429 0.891429 0 0 0 1 2
4 1 0.905192 2.67103 2.69107 2.50066 -8.80896 7.0972 1 1
5 1 2.67998 0.900346 2.66243 8.41428 -7.26124 1.53705 1 1
6 1 2.67429 2.67429 0.891429 0 0 0 1 2
7 1 0.0477549 1.7602 1.81218 -4.73348 3.79411 -10.1221 1 1
8 1 1.78451 0.0175496 1.7642 -1.88787 0.884544 -1.52062 1 1
9 1 1.78581 3.56647 1.7608 -1.75762 2.87574 -6.00936 1 1
10 1 3.59152 1.80038 1.7829 0.264852 4.32731 2.28516 1 1
11 1 3.56572 0 0 0 0 0 1 3
12 1 5.34857 1.78286 0 0 0 0 1 3
13 1 4.45714 0.891429 0.891429 0 0 0 1 2
14 1 4.44983 2.69628 2.67868 -3.39349 3.52336 -8.3898 1 1
15 1 6.2149 0.884432 2.65854 -4.66147 2.36085 3.69848 1 1
16 1 6.24 2.67429 0.891429 0 0 0 1 2
17 1 7.12988 1.77725 1.76478 -3.85635 3.78074 -7.84117 1 1
18 1 7.13143 0 0 0 0 0 1 3
19 1 8.02286 0.891429 0.891429 0 0 0 1 2
20 1 8.01717 2.6993 2.66035 5.90435 -0.369216 2.43006 1 1
21 1 8.91429 1.78286 0 0 0 0 1 3
22 1 9.82162 0.904533 2.6382 8.50835 3.18047 3.2128 1 1
23 1 9.80572 2.67429 0.891429 0 0 0 1 2
24 1 8.89212 21.4047 1.75825 6.04942 3.59036 -1.92258 1 1
25 1 10.7123 1.75369 1.73944 -5.4232 4.78679 3.26778 1 1
26 1 10.6971 0 0 0 0 0 1 3
27 1 12.48 1.78286 0 0 0 0 1 3
28 1 11.5886 0.891429 0.891429 0 0 0 1 2
29 1 11.6076 2.70053 2.66048 2.25415 4.50707 2.75869 1 1
30 1 13.4073 0.910265 2.70956 -5.72567 -0.724129 -2.92601 1 1
31 1 13.3714 2.67429 0.891429 0 0 0 1 2
32 1 14.2636 1.79064 1.77492 2.52357 0.37999 1.72327 1 1
33 1 14.2629 0 0 0 0 0 1 3
34 1 16.0457 1.78286 0 0 0 0 1 3
35 1 15.1543 0.891429 0.891429 0 0 0 1 2
36 1 15.1468 2.68896 2.71483 -5.76127 4.97631 -1.265 1 1
37 1 16.9468 0.886477 2.74365 4.42865 -2.61747 -7.3009 1 1
38 1 16.9371 2.67429 0.891429 0 0 0 1 2
39 1 16.0608 0.0166485 1.8352 -1.8977 1.4522 7.43951 1 1
40 1 17.8223 1.78279 1.7528 -0.983117 1.1685 -1.49081 1 1
41 1 17.8286 0 0 0 0 0 1 3
42 1 19.6114 1.78286 0 0 0 0 1 3
43 1 18.72 0.891429 0.891429 0 0 0 1 2
44 1 18.7572 2.66212 2.6761 1.96206 -6.91735 2.4407 1 1
45 1 20.5148 0.936439 2.65592 -3.79364 -3.5832 -5.59391 1 1
46 1 20.5029 2.67429 0.891429 0 0 0 1 2
47 1 0 3.56572 0 0 0 0 1 3
48 1 1.78286 5.34857 0 0 0 0 1 3
49 1 0.891429 4.45714 0.891429 0 0 0 1 2
50 1 0.888113 6.26131 2.67582 3.5055 3.96132 -3.19561 1 1
51 1 2.66126 4.48346 2.69542 3.33008 5.58081 -2.27421 1 1
52 1 2.67429 6.24 0.891429 0 0 0 1 2
53 1 3.5799 5.34385 1.80415 3.22647 -1.88588 -5.91035 1 1
54 1 5.36576 3.55223 1.78282 3.53487 -8.2008 9.61641 1 1
55 1 3.56572 3.56572 0 0 0 0 1 3
56 1 5.34857 5.34857 0 0 0 0 1 3
57 1 4.45714 4.45714 0.891429 0 0 0 1 2
58 1 4.47516 6.2348 2.70016 -7.95007 -5.55755 0.00892436 1 1
59 1 6.23643 4.44787 2.69225 -4.96459 1.98341 1.65597 1 1
60 1 6.24 6.24 0.891429 0 0 0 1 2
61 1 5.35921 7.11187 1.77713 -2.44297 6.3652 -5.89625 1 1
62 1 7.12224 5.30769 1.78322 6.30983 1.51533 -1.43643 1 1
63 1 7.13143 3.56572 0 0 0 0 1 3
64 1 8.90104 3.58528 1.7811 -1.20046 -1.45027 4.51652 1 1
65 1 8.02286 4.45714 0.891429 0 0 0 1 2
66 1 8.02355 6.22257 2.71923 0.707756 1.83227 -1.32055 1 1
67 1 8.91429 5.34857 0 0 0 0 1 3
68 1 9.76746 4.46095 2.63826 2.46124 3.77411 -5.73862 1 1
69 1 9.80572 6.24 0.891429 0 0 0 1 2
70 1 10.6737 5.32018 1.79307 5.47694 -1.63163 -9.55064 1 1
71 1 12.4851 3.61907 1.81975 3.262 -0.132516 -2.53787 1 1
72 1 10.6971 3.56572 0 0 0 0 1 3
73 1 12.48 5.34857 0 0 0 0 1 3
74 1 11.5886 4.45714 0.891429 0 0 0 1 2
75 1 11.5781 6.23947 2.67936 5.626 -10.1166 1.64683 1 1
76 1 13.3876 4.44526 2.73956 1.7355 -0.451511 -2.01051 1 1
77 1 13.3714 6.24 0.891429 0 0 0 1 2
78 1 14.2743 5.37057 1.80617 4.35366 -5.53998 3.73056 1 1
79 1 16.0313 3.52955 1.77908 0.55841 2.24099 -5.59951 1 1
80 1 14.2629 3.56572 0 0 0 0 1 3
81 1 16.0457 5.34857 0 0 0 0 1 3
82 1 15.1543 4.45714 0.891429 0 0 0 1 2
83 1 15.1654 6.22796 2.67773 -5.96827 2.8182 7.41056 1 1
84 1 16.9435 4.38399 2.67949 -5.19045 -0.550979 2.55508 1 1
85 1 16.9371 6.24 0.891429 0 0 0 1 2
86 1 17.7685 5.35958 1.78803 -1.57315 6.56182 -4.89694 1 1
87 1 19.6263 3.55793 1.76578 5.65344 4.92799 0.16526 1 1
88 1 21.3918 5.36211 1.74971 5.79466 2.41381 6.23282 1 1
89 1 17.8286 3.56572 0 0 0 0 1 3
90 1 19.6114 5.34857 0 0 0 0 1 3
91 1 18.72 4.45714 0.891429 0 0 0 1 2
92 1 18.681 6.26963 2.70563 3.42035 -5.33618 4.27836 1 1
93 1 20.4828 4.46877 2.68493 -0.376713 6.28784 -5.20654 1 1
94 1 20.5029 6.24 0.891429 0 0 0 1 2
95 1 19.5941 7.13308 1.81291 -4.57018 5.56869 4.12536 1 1
96 1 1.74052 7.13676 1.78455 2.96254 0.479919 -0.0557637 1 1
97 1 0 7.13143 0 0 0 0 1 3
98 1 0.891429 8.02286 0.891429 0 0 0 1 2
99 1 2.62703 8.02839 2.63413 -1.35727 -1.14404 1.45496 1 1
100 1 1.78286 8.91429 0 0 0 0 1 3
101 1 0.868406 9.80927 2.69035 -1.16265 -0.44227 -4.98008 1 1
102 1 2.67429 9.80572 0.891429 0 0 0 1 2
103 1 1.78993 10.7147 1.80898 -5.16979 -2.38729 -4.51548 1 1
104 1 3.51704 8.88609 1.76784 9.38583 -5.05435 7.03664 1 1
105 1 3.56572 7.13143 0 0 0 0 1 3
106 1 4.45714 8.02286 0.891429 0 0 0 1 2
107 1 6.1934 8.02637 2.68023 -11.5553 2.76383 2.38459 1 1
108 1 5.34857 8.91429 0 0 0 0 1 3
109 1 4.42234 9.77084 2.65897 6.90926 -3.31012 1.76417 1 1
110 1 6.24 9.80572 0.891429 0 0 0 1 2
111 1 7.14405 8.90741 1.79966 -0.296465 2.84057 -11.0747 1 1
112 1 8.94247 7.11889 1.82956 -0.442926 -4.60756 5.4926 1 1
113 1 7.13143 7.13143 0 0 0 0 1 3
114 1 8.02286 8.02286 0.891429 0 0 0 1 2
115 1 9.79046 8.05744 2.6735 -4.90871 2.40886 -0.15412 1 1
116 1 8.04557 9.8246 2.69854 -2.44904 -4.92116 -4.46596 1 1
117 1 8.91429 8.91429 0 0 0 0 1 3
118 1 9.80572 9.80572 0.891429 0 0 0 1 2
119 1 10.6756 8.95363 1.7532 1.21427 -1.78178 -2.31687 1 1
120 1 12.4824 7.13367 1.75303 2.56103 -2.99036 -0.823214 1 1
121 1 10.6971 7.13143 0 0 0 0 1 3
122 1 11.5886 8.02286 0.891429 0 0 0 1 2
123 1 13.3829 8.03138 2.64849 9.14884 1.24606 -2.13493 1 1
124 1 12.48 8.91429 0 0 0 0 1 3
125 1 11.593 9.7879 2.66667 -0.969291 -0.332377 1.05855 1 1
126 1 13.3714 9.80572 0.891429 0 0 0 1 2
127 1 12.4854 10.7082 1.77743 4.79319 2.36636 3.54709 1 1
128 1 16.0767 7.08369 1.772 1.41532 -2.06506 -3.03852 1 1
129 1 14.2863 8.89494 1.78147 0.460926 -3.79149 0.832382 1 1
130 1 14.2629 7.13143 0 0 0 0 1 3
131 1 15.1543 8.02286 0.891429 0 0 0 1 2
132 1 16.9359 8.05376 2.66968 -1.11163 -0.426711 -0.0028599 1 1
133 1 16.0457 8.91429 0 0 0 0 1 3
134 1 15.1436 9.79376 2.70475 -2.46428 4.80649 -5.63651 1 1
135 1 16.9371 9.80572 0.891429 0 0 0 1 2
136 1 16.0852 10.6735 1.7525 0.929353 4.9306 1.72757 1 1
137 1 17.848 8.91359 1.80496 -0.471672 -1.20499 -1.43649 1 1
138 1 21.3971 8.90014 1.75894 2.18996 -5.80683 -6.72073 1 1
139 1 17.8286 7.13143 0 0 0 0 1 3
140 1 18.72 8.02286 0.891429 0 0 0 1 2
141 1 20.5075 8.02529 2.65569 7.21721 -0.6411 -3.52508 1 1
142 1 19.6114 8.91429 0 0 0 0 1 3
143 1 18.7561 9.80365 2.66711 3.20256 5.95637 -6.09504 1 1
144 1 20.5029 9.80572 0.891429 0 0 0 1 2
145 1 0 10.6971 0 0 0 0 1 3
146 1 1.78286 12.48 0 0 0 0 1 3
147 1 0.891429 11.5886 0.891429 0 0 0 1 2
148 1 2.7471 11.5651 2.67619 3.01186 -0.644618 -1.96836 1 1
149 1 0.88432 13.3984 2.64714 3.92171 -0.694094 -2.89907 1 1
150 1 2.67429 13.3714 0.891429 0 0 0 1 2
151 1 0.010178 12.4548 1.76138 -9.41964 4.59233 2.18648 1 1
152 1 5.3043 10.6875 1.792 0.578825 3.26601 -2.89454 1 1
153 1 3.57261 12.4554 1.78296 2.16447 -6.35829 -3.78256 1 1
154 1 3.56572 10.6971 0 0 0 0 1 3
155 1 5.34857 12.48 0 0 0 0 1 3
156 1 4.45714 11.5886 0.891429 0 0 0 1 2
157 1 6.22942 11.5802 2.67688 2.59225 -2.94528 9.85716 1 1
158 1 4.47045 13.3738 2.68312 -7.5977 -8.65839 -2.99671 1 1
159 1 6.24 13.3714 0.891429 0 0 0 1 2
160 1 5.3495 14.2819 1.80509 -0.129136 -0.876239 5.22841 1 1
161 1 8.9212 10.7152 1.79715 -0.769741 -2.53189 10.5923 1 1
162 1 7.08847 12.4645 1.81582 5.00964 3.23013 -3.30616 1 1
163 1 7.13143 10.6971 0 0 0 0 1 3
164 1 8.02286 11.5886 0.891429 0 0 0 1 2
165 1 8.91429 12.48 0 0 0 0 1 3
166 1 9.81431 11.5753 2.68116 -6.59424 -1.95343 -0.337104 1 1
167 1 8.04359 13.3831 2.71198 0.883405 2.34078 0.92586 1 1
168 1 9.80572 13.3714 0.891429 0 0 0 1 2
169 1 10.6954 12.4821 1.81665 -4.6202 -1.88457 3.57096 1 1
170 1 10.6971 10.6971 0 0 0 0 1 3
171 1 12.48 12.48 0 0 0 0 1 3
172 1 11.5886 11.5886 0.891429 0 0 0 1 2
173 1 13.3747 11.5757 2.66559 3.54329 -6.50315 -3.84076 1 1
174 1 11.5788 13.4158 2.70684 -2.26822 2.70355 0.844979 1 1
175 1 13.3714 13.3714 0.891429 0 0 0 1 2
176 1 12.4838 14.2769 1.78147 3.47418 -2.70328 7.25795 1 1
177 1 14.2582 12.4541 1.72922 2.29979 0.942813 5.73133 1 1
178 1 14.2629 10.6971 0 0 0 0 1 3
179 1 16.0457 12.48 0 0 0 0 1 3
180 1 15.1543 11.5886 0.891429 0 0 0 1 2
181 1 16.9504 11.5655 2.64152 -10.3198 2.74456 -1.72168 1 1
182 1 15.1424 13.3173 2.64684 2.41175 -0.643631 -4.1307 1 1
183 1 16.9371 13.3714 0.891429 0 0 0 1 2
184 1 17.7921 12.5116 1.80386 -0.0256226 4.06672 -0.621754 1 1
185 1 19.6035 10.71 1.77424 -6.61685 -7.19426 5.80643 1 1
186 1 17.8286 10.6971 0 0 0 0 1 3
187 1 19.6114 12.48 0 0 0 0 1 3
188 1 18.72 11.5886 0.891429 0 0 0 1 2
189 1 20.5219 11.5888 2.64018 -7.73547 3.80805 -4.63517 1 1
190 1 18.6962 13.3331 2.71404 1.69883 0.730038 -5.62956 1 1
191 1 20.5029 13.3714 0.891429 0 0 0 1 2
192 1 19.6195 14.2655 1.76981 7.76524 -3.12651 5.51884 1 1
193 1 1.76721 14.2446 1.78149 -5.15404 -10.7163 -8.48242 1 1
194 1 0 14.2629 0 0 0 0 1 3
195 1 1.78286 16.0457 0 0 0 0 1 3
196 1 0.891429 15.1543 0.891429 0 0 0 1 2
197 1 0.917074 16.9501 2.61296 2.54479 7.25786 2.28305 1 1
198 1 2.63531 15.1483 2.68518 3.1574 -5.90519 -2.15404 1 1
199 1 2.67429 16.9371 0.891429 0 0 0 1 2
200 1 0.000258586 16.0093 1.76792 -7.97429 -3.40262 2.19583 1 1
201 1 3.51933 16.066 1.79169 1.02339 -4.18746 7.32255 1 1
202 1 3.56572 14.2629 0 0 0 0 1 3
203 1 5.34857 16.0457 0 0 0 0 1 3
204 1 4.45714 15.1543 0.891429 0 0 0 1 2
205 1 4.46367 16.9338 2.69801 -1.57087 3.25737 1.8774 1 1
206 1 6.23513 15.1254 2.7004 6.81158 -0.00484523 -2.50838 1 1
207 1 6.24 16.9371 0.891429 0 0 0 1 2
208 1 7.17734 16.0664 1.79543 -1.23325 6.8354 -3.18918 1 1
209 1 5.36933 17.8148 1.82168 -1.64399 3.13692 1.17449 1 1
210 1 8.91503 14.2825 1.78699 -2.30487 -1.12371 -0.265973 1 1
211 1 7.13143 14.2629 0 0 0 0 1 3
212 1 8.02286 15.1543 0.891429 0 0 0 1 2
213 1 8.1036 16.9538 2.68982 -1.24827 -4.12459 5.86544 1 1
214 1 8.91429 16.0457 0 0 0 0 1 3
215 1 9.84026 15.1866 2.64974 10.4702 -6.89083 -9.59146 1 1
216 1 9.80572 16.9371 0.891429 0 0 0 1 2
217 1 8.95675 17.8379 1.81315 4.28496 7.21065 7.98494 1 1
218 1 10.7488 16.0383 1.7978 -1.97304 -1.53872 1.15613 1 1
219 1 10.6971 14.2629 0 0 0 0 1 3
220 1 12.48 16.0457 0 0 0 0 1 3
221 1 11.5886 15.1543 0.891429 0 0 0 1 2
222 1 11.6109 16.9749 2.67642 -2.6934 0.102608 4.66247 1 1
223 1 13.3816 15.1703 2.75439 -2.10146 2.50533 2.76578 1 1
224 1 13.3714 16.9371 0.891429 0 0 0 1 2
225 1 12.4899 17.8549 1.79183 0.874099 9.36701 5.04997 1 1
226 1 16.0209 14.2269 1.77198 -0.363005 -0.583341 -3.07119 1 1
227 1 14.2491 16.066 1.77013 -0.0834511 -1.08523 2.86672 1 1
228 1 14.2629 14.2629 0 0 0 0 1 3
229 1 16.0457 16.0457 0 0 0 0 1 3
230 1 15.1543 15.1543 0.891429 0 0 0 1 2
231 1 15.1668 16.9386 2.71139 2.98004 0.800295 -1.91985 1 1
232 1 16.9666 15.1815 2.68804 -5.17273 -5.48729 -6.99547 1 1
233 1 16.9371 16.9371 0.891429 0 0 0 1 2
234 1 17.8453 16.0639 1.81843 -3.49554 10.88 3.19248 1 1
235 1 17.8286 14.2629 0 0 0 0 1 3
236 1 19.6114 16.0457 0 0 0 0 1 3
237 1 18.72 15.1543 0.891429 0 0 0 1 2
238 1 18.756 16.9046 2.69888 2.46626 -5.21777 1.52316 1 1
239 1 20.4871 15.1196 2.67144 -3.64765 4.18697 8.68205 1 1
240 1 20.5029 16.9371 0.891429 0 0 0 1 2
241 1 19.624 17.8115 1.7773 -1.72012 3.92731 12.1324 1 1
242 1 1.78771 17.8236 1.76672 -1.67601 1.93561 1.38918 1 1
243 1 0 17.8286 0 0 0 0 1 3
244 1 1.78286 19.6114 0 0 0 0 1 3
245 1 0.891429 18.72 0.891429 0 0 0 1 2
246 1 0.901423 20.5628 2.68633 8.45593 -2.14626 -9.73412 1 1
247 1 2.67322 18.719 2.72179 0.313763 -1.70211 -7.31301 1 1
248 1 2.67429 20.5029 0.891429 0 0 0 1 2
249 1 3.57186 19.6057 1.81242 9.26989 6.70137 -6.93728 1 1
250 1 -0.00104994 19.642 1.80084 -4.15817 9.44209 -9.04781 1 1
251 1 5.34632 21.3803 1.76492 2.48765 7.69618 1.44412 1 1
252 1 3.56572 17.8286 0 0 0 0 1 3
253 1 5.34857 19.6114 0 0 0 0 1 3
254 1 4.45714 18.72 0.891429 0 0 0 1 2
255 1 4.44576 20.4801 2.70179 -10.0413 -1.13587 0.581098 1 1
256 1 6.24206 18.6922 2.73948 -4.86246 -6.67441 -5.89421 1 1
257 1 6.24 20.5029 0.891429 0 0 0 1 2
258 1 7.11618 19.6095 1.81639 -0.400377 -1.29853 -4.53534 1 1
259 1 7.13143 17.8286 0 0 0 0 1 3
260 1 8.02286 18.72 0.891429 0 0 0 1 2
261 1 8.03389 20.4811 2.71573 -5.50656 -4.99546 3.52299 1 1
262 1 8.91429 19.6114 0 0 0 0 1 3
263 1 9.84702 18.7434 2.70831 -1.48031 -1.1599 -0.775889 1 1
264 1 9.80572 20.5029 0.891429 0 0 0 1 2
265 1 10.7163 19.6373 1.80814 -8.11354 -6.14879 -1.40472 1 1
266 1 12.4804 21.3794 1.76647 6.26237 2.64572 -9.59853 1 1
267 1 10.6971 17.8286 0 0 0 0 1 3
268 1 12.48 19.6114 0 0 0 0 1 3
269 1 11.5886 18.72 0.891429 0 0 0 1 2
270 1 11.5876 20.5349 2.68921 -5.17961 7.79526 -3.23278 1 1
271 1 13.3964 18.709 2.72195 -0.161079 -1.89554 3.71533 1 1
272 1 13.3714 20.5029 0.891429 0 0 0 1 2
273 1 14.2796 19.5862 1.77376 9.39877 -7.16529 -0.751791 1 1
274 1 16.0489 17.8582 1.77279 11.0097 -4.96477 -4.4716 1 1
275 1 14.2629 17.8286 0 0 0 0 1 3
276 1 16.0457 19.6114 0 0 0 0 1 3
277 1 15.1543 18.72 0.891429 0 0 0 1 2
278 1 15.1845 20.5121 2.70752 -4.69045 -2.69031 2.31071 1 1
279 1 16.9481 18.706 2.687 -1.75175 -6.34713 -1.15259 1 1
280 1 16.9371 20.5029 0.891429 0 0 0 1 2
281 1 19.6258 0.0234339 1.78089 -6.39629 -1.82261 3.23364 1 1
282 1 17.8393 19.5927 1.81821 -0.0910289 -2.67985 -2.3956 1 1
283 1 17.8286 17.8286 0 0 0 0 1 3
284 1 19.6114 19.6114 0 0 0 0 1 3
285 1 18.72 18.72 0.891429 0 0 0 1 2
286 1 18.7024 20.5062 2.68539 2.61662 -7.47377 -7.38345 1 1
287 1 20.491 18.7132 2.66631 6.41067 -5.5153 0.136937 1 1
288 1 20.5029 20.5029 0.891429 0 0 0 1 2
289 1 1.73886 1.80405 3.58684 1.48263 6.84058 3.83059 1 1
290 1 0.89306 0.931664 4.4802 -2.48456 5.40682 3.8942 1 1
291 1 2.69116 2.68048 4.44712 -6.66969 -7.6847 4.19528 1 1
292 1 1.78582 0.0165579 5.34386 5.00762 0.163056 7.20147 1 1
293 1 1.82506 3.56737 5.35756 2.02456 -2.67913 0.0920712 1 1
294 1 0.0140427 1.79046 5.37775 2.0377 4.06883 -2.22798 1 1
295 1 0.021891 0.0494929 3.5592 -4.63408 -5.03566 6.62645 1 1
296 1 3.61355 1.78843 5.38117 3.89491 8.79651 -0.740732 1 1
297 1 5.32906 1.82199 3.57885 6.75946 -7.92611 -6.72083 1 1
298 1 4.48585 0.886611 4.48325 1.44209 9.21873 6.85925 1 1
299 1 6.32082 0.910554 6.25068 3.1608 3.75837 -3.43736 1 1
300 1 6.25018 2.65866 4.51563 -5.90767 -3.37262 0.180359 1 1
301 1 3.55229 21.3706 3.56139 2.45383 -3.60636 -9.75237 1 1
302 1 7.15168 21.3667 3.58822 -2.43043 3.30547 0.64352 1 1
303 1 5.37545 0.0193582 5.31619 -6.0229 -0.674781 0.707809 1 1
304 1 7.12226 3.56423 3.59339 5.01199 -5.38682 -1.92626 1 1
305 1 7.17483 1.81224 5.35842 -8.25902 -4.21128 -5.63392 1 1
306 1 8.94678 1.79615 3.52337 6.09854 4.36436 4.01191 1 1
307 1 8.04602 0.894611 4.41775 -3.22938 4.40429 3.9907 1 1
308 1 8.04541 2.71643 6.20088 -4.03963 -5.57118 -2.52584 1 1
309 1 9.80688 0.899657 6.28096 -9.5572 7.92152 -2.27229 1 1
310 1 9.81648 2.69095 4.42297 -1.99395 8.24439 -2.72739 1 1
311 1 10.6726 1.84168 5.33992 5.87993 -1.25874 -2.57548 1 1
312 1 12.4869 1.79172 3.59616 4.54941 -3.55036 -2.54601 1 1
313 1 11.5843 0.924723 4.50239 3.92002 -0.34322 -3.58779 1 1
314 1 11.6043 2.7143 6.25544 -0.839387 -1.50574 -1.68437 1 1
315 1 13.3677 2.68255 4.52042 3.11296 4.77908 -2.44413 1 1
316 1 13.3707 0.917233 6.29859 -2.80761 3.47654 7.85606 1 1
317 1 12.4665 3.58467 5.41811 0.815827 -2.95627 1.24197 1 1
318 1 14.2905 1.77093 5.41411 5.6773 6.21839 -4.95081 1 1
319 1 12.468 0.0498589 5.40782 6.55366 3.2486 0.78212 1 1
320 1 14.2494 3.57774 3.63222 9.95063 8.21831 5.43938 1 1
321 1 16.1103 1.78896 3.63533 2.65143 3.12416 -2.00214 1 1
322 1 15.1587 0.907318 4.52254 0.0437804 -3.13747 2.53706 1 1
323 1 15.1712 2.69691 6.27241 -0.561105 -6.49976 0.450515 1 1
324 1 16.948 2.68825 4.53462 -6.5514 0.0182343 -4.26242 1 1
325 1 17.8564 1.78306 5.40608 -8.75308 6.31293 -0.129893 1 1
326 1 16.0361 0.0370792 5.39827 -0.818219 1.70506 1.67664 1 1
327 1 19.6465 1.7647 3.55694 7.20027 -1.68953 -6.75815 1 1
328 1 18.7068 0.897556 4.50936 -3.71856 1.33579 9.64453 1 1
329 1 20.5109 2.65945 4.48569 -1.7297 -4.33757 -3.09132 1 1
330 1 17.8246 21.3867 3.55503 -11.5105 6.69549 -7.1343 1 1
331 1 19.6071 0.0103582 5.39091 0.904426 1.29113 -12.1153 1 1
332 1 0.0110263 3.57982 3.54319 -1.85565 -4.22358 6.68791 1 1
333 1 1.75524 5.33986 3.57356 -5.55083 -1.39661 -6.07811 1 1
334 1 0.906279 4.41724 4.48148 -1.62869 2.9367 -2.05636 1 1
335 1 2.68317 4.46609 6.24947 3.50357 -3.98787 -0.406304 1 1
336 1 2.66327 6.28659 4.49235 -2.698 4.36235 2.37412 1 1
337 1 3.5874 3.57627 3.55479 4.28624 -5.48546 -10.161 1 1
338 1 0.0060644 5.36605 5.36111 -2.24286 -0.2957 -2.95643 1 1
339 1 3.57849 5.36658 5.37664 -2.67196 -1.21678 -3.41665 1 1
340 1 5.3744 3.58363 5.40091 -0.916588 2.63492 0.44927 1 1
341 1 5.36817 5.36215 3.60982 -1.38862 3.61258 1.40039 1 1
342 1 4.44117 4.4774 4.52578 9.50987 -1.53188 -5.98984 1 1
343 1 4.43939 6.25288 6.2572 2.57393 3.75785 -1.83599 1 1
344 1 6.23265 6.24966 4.51849 -5.19956 -0.922874 1.22406 1 1
345 1 7.16285 5.38132 5.35392 13.6962 2.60477 4.36786 1 1
346 1 5.38589 7.15843 5.38176 10.4354 -0.176026 -2.20974 1 1
347 1 6.28399 4.49667 6.26973 -4.2463 5.69405 -1.57607 1 1
348 1 8.91584 3.57201 5.31946 6.86841 3.68424 -0.911499 1 1
349 1 10.7464 3.59541 3.55128 -6.90429 6.84187 -4.95813 1 1
350 1 8.90427 5.30247 3.57933 1.92908 -4.82174 -3.59685 1 1
351 1 8.01846 4.46273 4.43883 -9.18288 -2.94824 -0.0987335 1 1
352 1 8.03893 6.26237 6.3006 -6.40386 1.15872 4.23377 1 1
353 1 9.78912 4.45474 6.27824 1.98273 1.32269 -2.44863 1 1
354 1 9.82159 6.20561 4.44889 -7.83216 -6.24485 -9.19244 1 1
355 1 10.7138 5.3501 5.34101 3.86991 -4.24064 -1.25028 1 1
356 1 12.5414 5.38046 3.58276 3.23614 3.83314 -1.51332 1 1
357 1 11.6024 4.47152 4.47758 -3.74797 -0.127769 -8.64478 1 1
358 1 13.4353 6.25287 4.5006 -3.67281 -3.53997 -0.422261 1 1
359 1 14.3038 5.36117 5.38221 3.18593 -2.09819 -6.34179 1 1
360 1 16.1153 3.59444 5.36927 5.8429 -8.94684 -10.5947 1 1
361 1 17.8562 3.536 3.58016 5.22615 3.04369 -2.15016 1 1
362 1 16.0554 5.32898 3.57579 0.256315 -9.76524 2.82107 1 1
363 1 15.2131 4.47577 4.51349 -5.71291 5.41952 -1.10556 1 1
364 1 16.9868 6.2506 4.48386 -3.68514 -0.5631 -0.196435 1 1
365 1 16.9635 4.49273 6.2613 6.75501 0.00182896 -5.8502 1 1
366 1 16.0623 7.13485 5.40858 3.55846 -2.0175 -2.48544 1 1
367 1 15.1846 6.25923 6.28932 1.14929 -4.63413 -1.19544 1 1
368 1 19.6244 3.53987 5.354 1.28386 -3.57863 3.63991 1 1
369 1 17.8704 5.34903 5.35838 4.34813 -5.82428 0.803067 1 1
370 1 19.6176 5.34107 3.57203 -9.7288 -10.8543 0.275618 1 1
371 1 18.7807 4.46441 4.47666 0.150051 2.76864 -4.11273 1 1
372 1 20.5283 4.44895 6.26381 5.19208 -1.88558 -4.26559 1 1
373 1 20.5106 6.20325 4.45767 3.54172 -1.12413 -8.38993 1 1
374 1 19.6583 7.17701 5.38059 10.1122 0.120879 -12.7762 1 1
375 1 5.80629e-05 7.13182 3.60849 -3.31877 -4.01035 5.27182 1 1
376 1 1.72993 7.13372 5.37706 -0.0567384 6.92078 -5.69817 1 1
377 1 1.78376 8.90011 3.57693 -3.4542 -0.849221 -3.61337 1 1
378 1 0.893032 8.05932 4.45305 -0.332558 0.870538 1.80626 1 1
379 1 2.65754 8.02999 6.31425 4.51549 -1.89372 6.47204 1 1
380 1 0.851766 9.81432 6.28208 -5.26296 2.67888 -4.59461 1 1
381 1 2.615 9.74737 4.51601 0.696622 3.18199 2.56654 1 1
382 1 0.033061 8.92951 5.38326 5.67332 -6.26621 1.29502 1 1
383 1 1.76816 10.7123 5.39271 1.9041 -1.07973 -2.49184 1 1
384 1 3.54703 7.1573 3.6138 -0.569314 3.73297 8.90854 1 1
385 1 7.14313 7.13178 3.60342 -4.35859 9.6942 -6.11754 1 1
386 1 3.58127 10.6435 3.58107 4.07209 -0.619158 -2.01124 1 1
387 1 3.53616 8.88943 5.4347 7.59717 -2.29426 -5.74252 1 1
388 1 5.30325 8.9296 3.58073 1.25679 -1.07475 -7.93141 1 1
389 1 4.44149 7.97706 4.50552 -2.36373 2.62033 -7.20195 1 1
390 1 4.46279 9.80238 6.26797 -0.455358 2.04629 3.87011 1 1
391 1 6.26033 9.8096 4.49122 -3.78487 -2.83088 -2.74959 1 1
392 1 8.93282 7.12939 5.34955 -3.54337 -0.668201 -1.78568 1 1
393 1 7.14511 8.91721 5.37233 -4.30349 -6.96369 -6.31255 1 1
394 1 8.88262 8.94596 3.61135 -3.17395 5.10297 0.279315 1 1
395 1 8.0263 8.04664 4.51877 -5.90205 -0.746068 -9.51859 1 1
396 1 9.81611 9.82363 4.48207 -2.92411 1.12194 -5.35907 1 1
397 1 10.7021 8.88225 5.3842 -7.41226 2.6693 2.8411 1 1
398 1 10.6854 10.7251 3.54574 -2.10153 -4.23576 0.420738 1 1
399 1 9.82434 8.0079 6.25074 -0.951182 2.45015 4.99314 1 1
400 1 12.5133 7.09539 5.35052 -4.99598 -2.52651 5.15161 1 1
401 1 10.748 7.10866 3.58563 6.2925 -5.57892 1.335 1 1
402 1 12.4783 8.92937 3.54213 -0.214958 -0.637086 -3.36052 1 1
403 1 11.6244 7.96513 4.46654 7.56182 4.29423 2.66025 1 1
404 1 13.3701 9.8166 4.45224 -0.69229 -1.98895 0.946026 1 1
405 1 14.2705 7.10461 3.56455 4.47258 2.31217 12.3116 1 1
406 1 14.2513 8.93864 5.38201 3.63872 0.0953264 -1.14275 1 1
407 1 17.8651 7.10508 3.56134 14.4973 -2.23956 -2.42334 1 1
408 1 16.0713 8.90815 3.57114 2.18566 2.68622 -1.26817 1 1
409 1 15.1612 8.03352 4.45341 -7.52728 0.122088 -3.07393 1 1
410 1 16.9964 9.81963 4.45533 1.49735 -2.1385 0.920582 1 1
411 1 16.0577 10.7003 5.40663 3.7236 -2.6985 8.94216 1 1
412 1 16.9595 8.05363 6.28185 3.13556 -4.02364 -3.04888 1 1
413 1 17.8662 8.96228 5.34326 -0.324815 10.4067 -0.301254 1 1
414 1 19.6196 8.91014 3.54436 -2.99097 -4.17248 4.62781 1 1
415 1 18.7377 8.01385 4.46306 -2.42327 6.82091 0.851487 1 1
416 1 18.7141 9.81918 6.25515 -1.40897 1.43639 -1.00063 1 1
417 1 20.5317 9.78431 4.45959 -4.48113 6.30707 -4.77408 1 1
418 1 20.5171 8.0412 6.24703 1.98001 0.821985 -3.32995 1 1
419 1 19.6384 10.674 5.37942 -0.968576 1.28755 6.56414 1 1
420 1 21.3624 10.6698 3.55171 -7.22718 3.71053 -5.84417 1 1
421 1 1.78771 12.4955 3.588 -2.03938 -11.5467 2.08161 1 1
422 1 0.883642 11.5787 4.47004 0.446854 2.35185 4.73962 1 1
423 1 2.61534 11.5747 6.27953 -5.37098 3.03401 1.93561 1 1
424 1 0.924212 13.3897 6.262 0.292511 -8.25384 -8.33488 1 1
425 1 2.70589 13.3423 4.4922 0.706978 -1.52372 -5.37853 1 1
426 1 0.0206048 12.4897 5.35835 -5.4152 3.5008 6.46792 1 1
427 1 5.31672 10.6756 5.38229 -1.57017 -6.63234 -4.90159 1 1
428 1 3.58642 14.249 3.53172 -3.59656 3.5007 5.20687 1 1
429 1 3.54792 12.425 5.42932 -13.8122 4.00966 -3.29685 1 1
430 1 5.34169 12.4352 3.59041 -4.40924 -4.66566 -7.00451 1 1
431 1 4.44137 11.5483 4.48199 -5.32504 -3.06544 7.68165 1 1
432 1 6.2253 13.3667 4.4939 0.357608 -1.21911 -1.12907 1 1
433 1 7.14026 14.2513 3.56389 -4.71132 6.67385 -10.4393 1 1
434 1 6.23357 11.5765 6.31983 -6.5733 1.15434 -4.61496 1 1
435 1 7.11034 10.7199 3.59151 1.59902 9.11366 3.03269 1 1
436 1 7.13522 12.4997 5.35161 3.17602 0.456 -1.85944 1 1
437 1 8.96221 10.7324 5.41925 3.76455 -1.15346 0.390404 1 1
438 1 8.96314 12.4552 3.56117 6.28534 -8.75394 0.387411 1 1
439 1 8.03915 11.585 4.45962 -5.08502 -4.74128 -3.50229 1 1
440 1 9.85734 11.6441 6.31832 -1.64792 -4.73038 8.22486 1 1
441 1 8.0576 13.3705 6.26513 -8.17271 -1.08388 -1.90331 1 1
442 1 9.79614 13.412 4.47933 8.95311 3.88859 -1.00447 1 1
443 1 10.6907 14.2998 3.57397 -0.649025 6.25666 3.14848 1 1
444 1 12.4595 10.7151 5.3795 -5.22868 -1.14802 2.73406 1 1
445 1 10.649 12.5337 5.36315 -1.35564 6.36868 -4.49609 1 1
446 1 12.4779 12.5064 3.56794 3.06343 -4.05112 -1.99385 1 1
447 1 11.5621 11.6459 4.44124 -6.53092 -4.6028 -10.124 1 1
448 1 13.3148 11.6341 6.2614 4.27244 -3.61897 -2.62978 1 1
449 1 11.6175 13.4408 6.29072 8.71832 -0.664201 0.0831166 1 1
450 1 13.387 13.375 4.46343 1.79064 1.19968 -2.74853 1 1
451 1 14.2915 10.705 3.56366 0.313599 -7.00247 1.14124 1 1
452 1 14.2052 12.4704 5.35148 -9.59132 0.179385 -0.280492 1 1
453 1 16.1004 12.4624 3.55677 -1.85144 2.51565 1.65919 1 1
454 1 15.1781 11.5721 4.47467 0.253193 -3.61707 2.36058 1 1
455 1 16.9797 11.6101 6.27717 1.47693 -0.379709 3.74276 1 1
456 1 16.9431 13.3106 4.49389 -2.50542 -2.7467 -7.25013 1 1
457 1 17.8483 12.4737 5.37404 -4.11807 1.67711 -4.6871 1 1
458 1 15.1563 13.3342 6.26635 4.56768 3.668 -4.72226 1 1
459 1 17.8405 10.7272 3.53392 0.902668 -1.70063 6.89363 1 1
460 1 19.6333 12.4668 3.58386 0.584903 6.00537 0.391432 1 1
461 1 18.7312 11.5852 4.51832 0.201254 7.20768 -2.32451 1 1
462 1 18.7626 13.3261 6.28944 0.38515 2.83118 4.13538 1 1
463 1 20.5458 13.3526 4.45425 3.9588 6.49785 0.193277 1 1
464 1 20.5213 11.5789 6.28097 3.40267 0.544794 -0.987912 1 1
465 1 1.72404 14.2722 5.32823 -7.46745 3.34578 2.88881 1 1
466 1 1.77532 16.0815 3.59669 -3.03709 13.5577 -2.22013 1 1
467 1 0.836203 15.1816 4.49242 -0.164154 0.891471 -4.5873 1 1
468 1 2.68073 15.1374 6.26636 6.87946 9.43674 4.90909 1 1
469 1 2.6392 16.9383 4.46973 6.64404 1.48908 4.64333 1 1
470 1 21.3827 16.034 5.35093 -1.95042 5.31112 -7.32904 1 1
471 1 21.3729 14.3062 3.55489 10.0234 -3.17211 -0.330014 1 1
472 1 1.75287 17.8292 5.35492 -4.18462 -4.81825 0.195488 1 1
473 1 5.30696 14.2924 5.3947 9.88451 -3.98117 1.11709 1 1
474 1 3.54594 16.0624 5.36995 5.27557 4.27255 -2.68006 1 1
475 1 5.33903 16.0585 3.56889 -2.26975 3.59848 1.89391 1 1
476 1 4.45604 15.1823 4.48171 2.27047 0.140521 4.63902 1 1
477 1 4.41041 16.9773 6.28375 -1.14662 0.494401 0.89018 1 1
478 1 6.19945 15.1512 6.27847 6.40844 2.68432 6.70075 1 1
479 1 6.28772 16.9593 4.53649 5.72321 6.22667 -7.36873 1 1
480 1 7.14351 16.0073 5.40419 2.23241 -1.51258 -2.59962 1 1
481 1 8.91376 14.2614 5.3868 -7.53391 -5.7197 -6.37852 1 1
482 1 8.95463 16.0309 3.62156 6.45484 -5.68354 -10.2215 1 1
483 1 8.03996 15.1162 4.45733 1.60539 1.72724 -1.52536 1 1
484 1 8.06951 16.9013 6.31743 9.02275 -0.898017 -1.29395 1 1
485 1 9.80013 15.1712 6.30514 4.4126 -5.32196 -1.22856 1 1
486 1 9.80175 16.9491 4.50384 4.46082 -10.1308 1.33462 1 1
487 1 10.6832 16.0669 5.35251 -6.17818 0.983103 1.76299 1 1
488 1 8.96948 17.8244 5.41357 5.60034 1.74705 -1.1671 1 1
489 1 10.7252 17.8624 3.61681 -3.17453 6.35321 -9.77721 1 1
490 1 12.5048 14.2906 5.35301 0.0037543 -2.49 -2.54004 1 1
491 1 12.4851 16.1043 3.58105 -2.69457 -11.9578 -3.5314 1 1
492 1 11.5572 15.1838 4.46733 0.0509943 -2.31728 7.01725 1 1
493 1 11.5653 16.9505 6.28676 5.24074 -3.90615 -7.75844 1 1
494 1 13.377 16.9404 4.50361 -1.66777 -0.698814 -0.226307 1 1
495 1 13.4006 15.1534 6.28711 -7.07946 2.80034 -6.65621 1 1
496 1 12.5121 17.8121 5.40077 0.491953 -6.14773 1.36633 1 1
497 1 14.2547 14.2336 3.56615 -3.58186 -4.41855 -5.78909 1 1
498 1 16.0724 14.2257 5.35601 -7.22437 -2.06908 -6.01527 1 1
499 1 17.8494 14.2535 3.61813 -3.56792 -0.0794713 4.27687 1 1
500 1 14.2261 16.0472 5.36353 3.8379 5.73338 11.0286 1 1
501 1 14.2976 17.8711 3.66804 1.13359 -3.29097 2.27963 1 1
502 1 16.0133 16.0371 3.55362 -0.103288 -9.51049 -5.26845 1 1
503 1 15.1676 15.1258 4.47618 -2.41874 5.60606 0.541307 1 1
504 1 16.9492 16.9215 4.50137 -9.30792 2.64324 -8.90962 1 1
505 1 16.9708 15.1448 6.26231 -0.814309 1.66598 -6.39012 1 1
506 1 17.8719 16.0652 5.38618 1.83582 1.68802 -7.45966 1 1
507 1 19.644 14.2332 5.33702 -12.3106 10.9317 -5.11444 1 1
508 1 19.6265 16.02 3.58546 -4.26521 3.22096 2.51297 1 1
509 1 18.7318 15.149 4.48104 -2.69255 4.4989 1.04613 1 1
510 1 20.4763 16.9503 4.43616 3.86568 1.97218 -3.87381 1 1
511 1 19.605 17.8306 5.36979 -0.147455 6.93697 -5.27074 1 1
512 1 20.5242 15.1698 6.2351 2.93167 -0.0210606 -3.03721 1 1
513 1 1.76849 19.6167 3.59198 -2.89438 10.3623 -5.59733 1 1
514 1 0.858705 18.7507 4.427 -0.579519 3.00924 -3.8128 1 1
515 1 0.866693 20.5636 6.26817 -1.41724 1.62412 -2.07534 1 1
516 1 2.67868 20.4998 4.49273 -2.00078 2.25858 -3.17287 1 1
517 1 -0.0304942 17.8697 3.55095 -11.9827 0.64988 -0.187275 1 1
518 1 0.0409168 19.6614 5.31558 -1.08794 5.53694 -7.13511 1 1
519 1 2.67525 18.6996 6.26511 5.43358 -12.3902 -8.20565 1 1
520 1 5.40098 17.8683 5.39581 -2.46111 1.23249 3.97042 1 1
521 1 3.58495 17.8256 3.60884 0.498127 0.981669 -1.79212 1 1
522 1 3.55597 19.6368 5.38363 0.301645 -9.60996 -4.03923 1 1
523 1 5.35786 19.6106 3.55777 1.85336 -4.45497 0.0885987 1 1
524 1 4.48716 18.7511 4.4749 0.957377 -3.01295 -10.6998 1 1
525 1 4.49535 20.4975 6.25495 -8.37112 -2.75419 -3.34752 1 1
526 1 6.27999 18.6993 6.30725 -6.00607 0.835167 3.38982 1 1
527 1 6.26334 20.5096 4.44777 -1.5088 -4.53422 6.79536 1 1
528 1 7.21865 17.8236 3.65214 0.961055 -2.48926 -0.521051 1 1
529 1 7.14377 19.6311 5.34108 -3.38697 7.34263 -1.4508 1 1
530 1 8.9215 0.051643 5.35641 -6.63353 1.93206 -0.463886 1 1
531 1 8.92851 19.5826 3.61546 4.7438 -8.13245 -0.729071 1 1
532 1 8.06155 18.6774 4.55854 -5.73464 5.03364 -6.36719 1 1
533 1 8.0228 20.5394 6.2791 2.08591 1.06871 -1.83239 1 1
534 1 9.83372 18.7662 6.29157 1.13277 9.01104 4.66092 1 1
535 1 9.81686 20.4891 4.47089 -0.489373 -3.44807 -7.39507 1 1
536 1 10.7042 19.6471 5.36535 0.0685048 9.08354 -0.155914 1 1
537 1 10.7126 0.0119588 3.57952 2.17528 -0.129117 -0.490369 1 1
538 1 12.5568 19.6277 3.61734 -3.72819 2.46409 -5.06115 1 1
539 1 11.603 18.773 4.50937 -4.92684 -0.933797 -1.16295 1 1
540 1 13.4401 18.6852 6.27443 0.75487 -1.37384 -1.19942 1 1
541 1 13.3577 20.5517 4.4922 5.18969 5.29802 -4.33478 1 1
542 1 16.0633 17.8155 5.37 -5.70857 -2.57083 -5.5201 1 1
543 1 14.2566 0.0206937 3.57377 5.50222 -2.03651 -4.49626 1 1
544 1 14.2712 19.6726 5.41193 -3.30214 -3.77462 1.62412 1 1
545 1 16.0928 19.5987 3.61775 8.40983 5.17982 -2.67947 1 1
546 1 15.1899 18.7417 4.4871 -4.347 4.22511 0.214145 1 1
547 1 16.921 18.7537 6.22351 -2.78255 -6.32933 -6.27223 1 1
548 1 16.9431 20.5276 4.49254 0.927423 -1.7052 0.526211 1 1
549 1 17.8108 19.6267 5.35057 2.72504 -5.16748 2.13695 1 1
550 1 17.8108 17.7845 3.55165 4.9893 -7.27012 -4.92506 1 1
551 1 19.6162 19.6141 3.56862 4.28669 5.50608 -6.89707 1 1
552 1 18.7288 18.7538 4.46784 3.73406 -10.6835 -4.58542 1 1
553 1 18.7277 20.4821 6.29496 -4.23759 0.457657 -0.22057 1 1
554 1 20.4946 18.7399 6.25484 2.53784 -3.4133 0.0698226 1 1
555 1 20.5104 20.5377 4.46608 6.01953 3.4831 -6.62003 1 1