ITEM: TIMESTEP
200
ITEM: NUMBER OF ATOMS
2953
ITEM: BOX BOUNDS pp pp mm
0.0000000000000000e+00 2.1394294200000001e+01
0.0000000000000000e+00 2.1394294200000001e+01
-4.4571446250000002e-01 5.3485735500000004e+01
ITEM: ATOMS id type x y z vx vy vz v_is_diamond c_structure_type
1 1 0 0 0 0 0 0 1 3
2 1 0.0348043 1.79608 1.77242 -8.44081 3.60708 -2.32146 1 1
3 1 1.79787 0.0247269 1.80368 -1.35796 -1.70654 4.1583 1 1
4 1 1.78286 1.78286 0 0 0 0 1 3
5 1 0.891429 0.891429 0.891429 0 0 0 1 2
6 1 0.904408 2.72055 2.63065 2.15996 -3.06803 4.11619 1 1
7 1 2.64036 0.964675 2.65771 5.87408 -1.03538 -2.86193 1 1
8 1 2.67429 2.67429 0.891429 0 0 0 1 2
9 1 3.56572 0 0 0 0 0 1 3
10 1 3.57163 1.81594 1.76929 0.400949 2.78912 1.24494 1 1
11 1 5.29216 0.0218273 1.84979 2.74682 7.38203 0.0142056 1 1
12 1 5.34857 1.78286 0 0 0 0 1 3
13 1 4.45714 0.891429 0.891429 0 0 0 1 2
14 1 4.45845 2.65179 2.75786 -2.49727 -3.24174 -9.89538 1 1
15 1 6.20069 0.925838 2.66949 -3.00624 4.04878 1.35686 1 1
16 1 6.24 2.67429 0.891429 0 0 0 1 2
17 1 7.13143 0 0 0 0 0 1 3
18 1 7.08635 1.78186 1.76784 -6.65078 4.26382 5.33321 1 1
19 1 8.9065 0.00584621 1.74061 -2.25531 -8.27488 1.54123 1 1
20 1 8.91429 1.78286 0 0 0 0 1 3
21 1 8.02286 0.891429 0.891429 0 0 0 1 2
22 1 7.96565 2.66265 2.65933 1.99641 0.210082 1.3892 1 1
23 1 9.76727 0.876024 2.64543 3.38452 0.269414 -0.489288 1 1
24 1 9.80572 2.67429 0.891429 0 0 0 1 2
25 1 10.6971 0 0 0 0 0 1 3
26 1 10.6953 1.76545 1.76582 -0.550604 3.09506 1.27573 1 1
27 1 12.459 21.3907 1.82284 3.94771 -0.795622 -3.42151 1 1
28 1 12.48 1.78286 0 0 0 0 1 3
29 1 11.5886 0.891429 0.891429 0 0 0 1 2
30 1 11.5532 2.66383 2.6599 3.7647 7.51444 0.887077 1 1
31 1 13.391 0.859174 2.73065 9.19376 2.03304 4.35295 1 1
32 1 13.3714 2.67429 0.891429 0 0 0 1 2
33 1 14.2629 0 0 0 0 0 1 3
34 1 14.2263 1.76826 1.8213 -1.10162 -6.77904 -4.24503 1 1
35 1 16.0436 0.00984267 1.81775 0.104216 -4.13651 3.50834 1 1
36 1 16.0457 1.78286 0 0 0 0 1 3
37 1 15.1543 0.891429 0.891429 0 0 0 1 2
38 1 15.16 2.66258 2.69977 -3.41444 0.0904611 -1.11658 1 1
39 1 16.9315 0.882042 2.66534 -0.341889 3.47787 5.52448 1 1
40 1 16.9371 2.67429 0.891429 0 0 0 1 2
41 1 17.8286 0 0 0 0 0 1 3
42 1 17.8038 1.76189 1.75092 -0.605635 0.980876 0.460473 1 1
43 1 19.6126 0.0432813 1.76246 9.00019 -1.7124 13.1966 1 1
44 1 19.6114 1.78286 0 0 0 0 1 3
45 1 18.72 0.891429 0.891429 0 0 0 1 2
46 1 18.7353 2.67345 2.67034 0.111618 2.18889 1.16683 1 1
47 1 20.5193 0.933101 2.64862 -6.48969 9.227 -2.22167 1 1
48 1 20.5029 2.67429 0.891429 0 0 0 1 2
49 1 0 3.56572 0 0 0 0 1 3
50 1 0.0185492 5.36721 1.77741 2.25587 0.386066 -1.3215 1 1
51 1 1.823 3.59573 1.78402 -6.29987 -0.891255 -1.24304 1 1
52 1 1.78286 5.34857 0 0 0 0 1 3
53 1 0.891429 4.45714 0.891429 0 0 0 1 2
54 1 0.918895 6.24578 2.7075 0.942371 -2.15023 2.33094 1 1
55 1 2.70749 4.46628 2.70313 -9.5097 3.01708 5.31355 1 1
56 1 2.67429 6.24 0.891429 0 0 0 1 2
57 1 3.56572 3.56572 0 0 0 0 1 3
58 1 3.58175 5.34693 1.78608 -1.04911 -7.979 -0.784725 1 1
59 1 5.32551 3.57214 1.80001 -0.311166 -0.332101 0.700908 1 1
60 1 5.34857 5.34857 0 0 0 0 1 3
61 1 4.45714 4.45714 0.891429 0 0 0 1 2
62 1 4.47966 6.24411 2.6819 4.94816 -1.95194 -4.95514 1 1
63 1 6.24159 4.47147 2.69684 3.86233 0.0523985 0.164836 1 1
64 1 6.24 6.24 0.891429 0 0 0 1 2
65 1 7.13143 3.56572 0 0 0 0 1 3
66 1 7.11679 5.36372 1.76572 0.132829 -5.65824 3.0918 1 1
67 1 8.92835 3.58749 1.82579 -2.67715 -3.14765 6.55926 1 1
68 1 8.91429 5.34857 0 0 0 0 1 3
69 1 8.02286 4.45714 0.891429 0 0 0 1 2
70 1 8.02184 6.22712 2.68407 0.648016 4.6949 2.28067 1 1
71 1 9.81505 4.45609 2.70053 -0.594623 0.0797945 -1.45736 1 1
72 1 9.80572 6.24 0.891429 0 0 0 1 2
73 1 10.6971 3.56572 0 0 0 0 1 3
74 1 10.7056 5.33184 1.82667 7.14693 -2.38316 0.429208 1 1
75 1 12.4654 3.55246 1.78027 6.06516 3.54418 0.754672 1 1
76 1 12.48 5.34857 0 0 0 0 1 3
77 1 11.5886 4.45714 0.891429 0 0 0 1 2
78 1 11.5578 6.27278 2.70818 -4.02607 10.0748 8.64252 1 1
79 1 13.3708 4.44814 2.66563 2.42804 -4.03004 8.29682 1 1
80 1 13.3714 6.24 0.891429 0 0 0 1 2
81 1 14.2629 3.56572 0 0 0 0 1 3
82 1 14.2787 5.35438 1.76432 -0.533545 5.14354 1.72891 1 1
83 1 16.0319 3.52732 1.79282 -4.97501 1.26388 5.03773 1 1
84 1 16.0457 5.34857 0 0 0 0 1 3
85 1 15.1543 4.45714 0.891429 0 0 0 1 2
86 1 15.191 6.20131 2.68552 1.68279 1.60966 -6.86245 1 1
87 1 16.9462 4.41781 2.65914 7.21001 -6.35769 2.35415 1 1
88 1 16.9371 6.24 0.891429 0 0 0 1 2
89 1 17.8286 3.56572 0 0 0 0 1 3
90 1 17.8152 5.3562 1.78174 -7.77185 -2.50633 -0.970383 1 1
91 1 19.6107 3.54965 1.77063 -3.3266 -0.538558 -8.15515 1 1
92 1 19.6114 5.34857 0 0 0 0 1 3
93 1 18.72 4.45714 0.891429 0 0 0 1 2
94 1 18.7715 6.21293 2.63405 -9.59998 2.98123 5.90461 1 1
95 1 20.5342 4.41895 2.71197 -3.03757 0.80478 6.51734 1 1
96 1 20.5029 6.24 0.891429 0 0 0 1 2
97 1 0 7.13143 0 0 0 0 1 3
98 1 0.0405873 8.88836 1.76213 3.57235 2.62005 3.27418 1 1
99 1 1.79767 7.10751 1.78867 -2.93569 0.437545 -0.491512 1 1
100 1 1.78286 8.91429 0 0 0 0 1 3
101 1 0.891429 8.02286 0.891429 0 0 0 1 2
102 1 0.893899 9.79595 2.66744 -1.38002 -0.622969 9.36296 1 1
103 1 2.69851 7.97694 2.67219 4.7313 10.6662 -10.9822 1 1
104 1 2.67429 9.80572 0.891429 0 0 0 1 2
105 1 3.56572 7.13143 0 0 0 0 1 3
106 1 3.5581 8.85932 1.7794 -2.92158 -0.491794 -7.84307 1 1
107 1 5.36888 7.11256 1.82258 5.53215 -0.502079 -1.44588 1 1
108 1 5.34857 8.91429 0 0 0 0 1 3
109 1 4.45714 8.02286 0.891429 0 0 0 1 2
110 1 4.46356 9.7826 2.69516 -2.00234 -2.84946 -11.2851 1 1
111 1 6.27358 8.03226 2.69339 0.854804 0.81187 5.67129 1 1
112 1 6.24 9.80572 0.891429 0 0 0 1 2
113 1 7.13143 7.13143 0 0 0 0 1 3
114 1 7.15334 8.8822 1.80639 -2.83992 -7.91684 -7.94821 1 1
115 1 8.90581 7.1179 1.7851 -3.93427 2.09311 5.78988 1 1
116 1 8.91429 8.91429 0 0 0 0 1 3
117 1 8.02286 8.02286 0.891429 0 0 0 1 2
118 1 8.05178 9.81594 2.69615 6.28958 -0.420136 -5.16314 1 1
119 1 9.74754 8.0044 2.66815 -1.39701 -0.917786 0.781817 1 1
120 1 9.80572 9.80572 0.891429 0 0 0 1 2
121 1 10.6971 7.13143 0 0 0 0 1 3
122 1 10.6463 8.91039 1.79421 2.34588 -2.28252 3.64732 1 1
123 1 12.4843 7.11839 1.83383 -1.51166 -5.65179 -5.1012 1 1
124 1 12.48 8.91429 0 0 0 0 1 3
125 1 11.5886 8.02286 0.891429 0 0 0 1 2
126 1 11.5641 9.82257 2.7094 5.25567 -7.42694 11.0042 1 1
127 1 13.3986 7.99602 2.70019 -4.32697 3.22635 2.18821 1 1
128 1 13.3714 9.80572 0.891429 0 0 0 1 2
129 1 14.2629 7.13143 0 0 0 0 1 3
130 1 14.2882 8.8967 1.76595 -3.63345 0.502174 4.2764 1 1
131 1 16.0835 7.12359 1.77796 -3.59266 1.23814 1.24361 1 1
132 1 16.0457 8.91429 0 0 0 0 1 3
133 1 15.1543 8.02286 0.891429 0 0 0 1 2
134 1 15.1349 9.78278 2.67753 1.86352 -1.3732 7.32192 1 1
135 1 16.9825 8.01431 2.67745 -5.90699 6.07279 8.90835 1 1
136 1 16.9371 9.80572 0.891429 0 0 0 1 2
137 1 17.8286 7.13143 0 0 0 0 1 3
138 1 17.8438 8.93749 1.79499 -4.47154 -1.39517 7.82369 1 1
139 1 19.6296 7.13746 1.79271 -10.2005 2.32026 1.06296 1 1
140 1 19.6114 8.91429 0 0 0 0 1 3
141 1 18.72 8.02286 0.891429 0 0 0 1 2
142 1 18.7147 9.75025 2.69483 8.0078 -2.92213 -1.39474 1 1
143 1 20.4878 8.02021 2.69719 -3.46 4.04671 -1.36783 1 1
144 1 20.5029 9.80572 0.891429 0 0 0 1 2
145 1 0 10.6971 0 0 0 0 1 3
146 1 0.0125254 12.5154 1.81764 -3.77086 3.26096 10.5914 1 1
147 1 1.77622 10.7202 1.80144 -1.27277 2.20599 -1.67018 1 1
148 1 1.78286 12.48 0 0 0 0 1 3
149 1 0.891429 11.5886 0.891429 0 0 0 1 2
150 1 0.889495 13.388 2.72464 -0.0215008 3.77752 1.81715 1 1
151 1 2.63859 11.5889 2.67684 2.93647 -1.49275 -1.1042 1 1
152 1 2.67429 13.3714 0.891429 0 0 0 1 2
153 1 3.56572 10.6971 0 0 0 0 1 3
154 1 3.52671 12.5279 1.78054 -0.719676 -4.14176 10.4954 1 1
155 1 5.35569 10.6635 1.78739 -9.17608 1.88771 0.224578 1 1
156 1 5.34857 12.48 0 0 0 0 1 3
157 1 4.45714 11.5886 0.891429 0 0 0 1 2
158 1 4.4613 13.4293 2.68949 -0.246252 13.424 3.86821 1 1
159 1 6.22674 11.5714 2.57586 8.06746 11.3879 1.11478 1 1
160 1 6.24 13.3714 0.891429 0 0 0 1 2
161 1 7.13143 10.6971 0 0 0 0 1 3
162 1 7.09931 12.4711 1.74367 -0.98615 -7.27104 -7.15674 1 1
163 1 8.9506 10.696 1.78556 -1.01826 -0.0968172 1.49122 1 1
164 1 8.91429 12.48 0 0 0 0 1 3
165 1 8.02286 11.5886 0.891429 0 0 0 1 2
166 1 8.00233 13.3479 2.66874 4.25421 4.17835 -1.64478 1 1
167 1 9.83035 11.5554 2.65551 -2.2642 -1.318 2.47267 1 1
168 1 9.80572 13.3714 0.891429 0 0 0 1 2
169 1 10.6971 10.6971 0 0 0 0 1 3
170 1 10.651 12.4828 1.73917 5.51707 -0.305864 -10.7727 1 1
171 1 12.451 10.6757 1.78582 -1.72086 4.99171 -1.90204 1 1
172 1 12.48 12.48 0 0 0 0 1 3
173 1 11.5886 11.5886 0.891429 0 0 0 1 2
174 1 11.6226 13.3719 2.62764 -2.26331 -0.976967 2.83528 1 1
175 1 13.3812 11.5536 2.66662 -1.92259 -0.0573037 -1.37062 1 1
176 1 13.3714 13.3714 0.891429 0 0 0 1 2
177 1 14.2629 10.6971 0 0 0 0 1 3
178 1 14.2808 12.4412 1.76887 -1.85455 6.96853 -0.0218139 1 1
179 1 16.0534 10.6833 1.78056 8.6078 -0.76627 -2.83967 1 1
180 1 16.0457 12.48 0 0 0 0 1 3
181 1 15.1543 11.5886 0.891429 0 0 0 1 2
182 1 15.1695 13.3687 2.66802 -1.96243 -3.05163 -7.44993 1 1
183 1 16.9953 11.603 2.68931 2.43952 -4.59717 3.88415 1 1
184 1 16.9371 13.3714 0.891429 0 0 0 1 2
185 1 17.8286 10.6971 0 0 0 0 1 3
186 1 17.8118 12.4804 1.78478 0.780667 1.0232 1.55672 1 1
187 1 19.6496 10.7087 1.78701 1.33797 0.695676 -1.66002 1 1
188 1 19.6114 12.48 0 0 0 0 1 3
189 1 18.72 11.5886 0.891429 0 0 0 1 2
190 1 18.7303 13.3733 2.66046 -1.89023 -4.20747 10.3307 1 1
191 1 20.4861 11.6456 2.69639 1.62641 0.893982 2.18934 1 1
192 1 20.5029 13.3714 0.891429 0 0 0 1 2
193 1 0 14.2629 0 0 0 0 1 3
194 1 0.0111941 16.0504 1.75134 -2.63321 9.01664 -8.34306 1 1
195 1 1.81408 14.2529 1.78645 0.196983 -2.60464 3.67764 1 1
196 1 1.78286 16.0457 0 0 0 0 1 3
197 1 0.891429 15.1543 0.891429 0 0 0 1 2
198 1 0.847596 16.9292 2.65132 7.25055 4.33601 -7.5283 1 1
199 1 2.67902 15.1648 2.65957 -3.68215 2.12822 1.92347 1 1
200 1 2.67429 16.9371 0.891429 0 0 0 1 2
201 1 3.56572 14.2629 0 0 0 0 1 3
202 1 3.61781 16.0786 1.78392 5.61719 -11.6293 2.70825 1 1
203 1 5.39688 14.253 1.80221 8.16616 3.2893 1.50348 1 1
204 1 5.34857 16.0457 0 0 0 0 1 3
205 1 4.45714 15.1543 0.891429 0 0 0 1 2
206 1 4.48527 16.9707 2.70058 -1.45344 0.0854876 -3.77773 1 1
207 1 6.26572 15.1634 2.65559 -2.5238 -5.82645 -1.18594 1 1
208 1 6.24 16.9371 0.891429 0 0 0 1 2
209 1 7.13143 14.2629 0 0 0 0 1 3
210 1 7.14493 16.0561 1.74803 0.0193012 1.1198 -5.68656 1 1
211 1 8.8924 14.2668 1.76687 5.26587 -2.39088 1.4809 1 1
212 1 8.91429 16.0457 0 0 0 0 1 3
213 1 8.02286 15.1543 0.891429 0 0 0 1 2
214 1 8.03713 16.9731 2.67099 0.60967 2.10175 -13.1323 1 1
215 1 9.77927 15.1487 2.68222 0.395225 -0.541865 -6.39761 1 1
216 1 9.80572 16.9371 0.891429 0 0 0 1 2
217 1 10.6971 14.2629 0 0 0 0 1 3
218 1 10.7056 16.0557 1.793 -2.0302 1.25123 7.21921 1 1
219 1 12.5021 14.2724 1.72093 -3.6149 4.74789 7.68713 1 1
220 1 12.48 16.0457 0 0 0 0 1 3
221 1 11.5886 15.1543 0.891429 0 0 0 1 2
222 1 11.6002 16.9994 2.66855 1.89876 0.827275 -3.97231 1 1
223 1 13.3829 15.1157 2.62266 1.40947 0.897928 6.90936 1 1
224 1 13.3714 16.9371 0.891429 0 0 0 1 2
225 1 14.2629 14.2629 0 0 0 0 1 3
226 1 14.2541 16.0393 1.76416 -2.55977 7.73212 -2.90609 1 1
227 1 16.044 14.2357 1.76156 -2.67081 -7.84695 6.54906 1 1
228 1 16.0457 16.0457 0 0 0 0 1 3
229 1 15.1543 15.1543 0.891429 0 0 0 1 2
230 1 15.1546 16.9298 2.69208 1.81127 -6.63472 4.23753 1 1
231 1 16.9326 15.1891 2.69827 2.22606 10.7552 -0.310069 1 1
232 1 16.9371 16.9371 0.891429 0 0 0 1 2
233 1 17.8286 14.2629 0 0 0 0 1 3
234 1 17.814 16.081 1.77917 -6.86644 -0.765341 -2.01329 1 1
235 1 19.6171 14.309 1.75181 2.28776 5.77788 4.24613 1 1
236 1 19.6114 16.0457 0 0 0 0 1 3
237 1 18.72 15.1543 0.891429 0 0 0 1 2
238 1 18.7004 16.9606 2.65931 4.30438 -1.27178 -3.4265 1 1
239 1 20.5597 15.162 2.66848 -0.631802 -1.05139 -2.12212 1 1
240 1 20.5029 16.9371 0.891429 0 0 0 1 2
241 1 0 17.8286 0 0 0 0 1 3
242 1 0.031423 19.6006 1.7727 3.50199 6.1382 -7.0035 1 1
243 1 1.77326 17.8516 1.78378 1.78785 -5.58395 9.15426 1 1
244 1 1.78286 19.6114 0 0 0 0 1 3
245 1 0.891429 18.72 0.891429 0 0 0 1 2
246 1 0.87158 20.5432 2.71049 0.120698 3.07545 4.21136 1 1
247 1 2.6771 18.7599 2.68572 1.79431 2.50025 1.24008 1 1
248 1 2.67429 20.5029 0.891429 0 0 0 1 2
249 1 3.56572 17.8286 0 0 0 0 1 3
250 1 3.54565 19.614 1.74543 -1.22894 -0.104453 -9.4081 1 1
251 1 5.35496 17.847 1.79165 1.00068 4.88986 1.58377 1 1
252 1 5.34857 19.6114 0 0 0 0 1 3
253 1 4.45714 18.72 0.891429 0 0 0 1 2
254 1 4.45755 20.5154 2.69039 -9.81518 5.73269 -0.0597325 1 1
255 1 6.26507 18.7239 2.66086 2.18039 -7.11411 -0.723662 1 1
256 1 6.24 20.5029 0.891429 0 0 0 1 2
257 1 7.13143 17.8286 0 0 0 0 1 3
258 1 7.11111 19.6017 1.78308 -0.129399 -6.21012 1.3275 1 1
259 1 8.89592 17.8696 1.82528 -6.44415 -0.338238 -1.24237 1 1
260 1 8.91429 19.6114 0 0 0 0 1 3
261 1 8.02286 18.72 0.891429 0 0 0 1 2
262 1 8.07848 20.5016 2.66146 -4.2703 0.59186 7.03214 1 1
263 1 9.80712 18.7484 2.72062 1.02122 -0.0175603 -8.61452 1 1
264 1 9.80572 20.5029 0.891429 0 0 0 1 2
265 1 10.6971 17.8286 0 0 0 0 1 3
266 1 10.6874 19.6566 1.80154 9.33213 -6.28553 -0.177106 1 1
267 1 12.4624 17.8956 1.77648 7.28972 2.88719 0.410065 1 1
268 1 12.48 19.6114 0 0 0 0 1 3
269 1 11.5886 18.72 0.891429 0 0 0 1 2
270 1 11.5796 20.5159 2.70638 -1.12214 -0.134529 6.51625 1 1
271 1 13.3804 18.7541 2.68056 -2.1042 -1.79823 2.58195 1 1
272 1 13.3714 20.5029 0.891429 0 0 0 1 2
273 1 14.2629 17.8286 0 0 0 0 1 3
274 1 14.2612 19.5996 1.78373 0.623854 -6.26548 4.12995 1 1
275 1 16.0713 17.8196 1.77908 -0.0435509 -2.15289 3.78954 1 1
276 1 16.0457 19.6114 0 0 0 0 1 3
277 1 15.1543 18.72 0.891429 0 0 0 1 2
278 1 15.1764 20.5204 2.67395 7.25401 0.590061 3.1658 1 1
279 1 16.9809 18.6963 2.66825 6.90767 -0.818759 4.32835 1 1
280 1 16.9371 20.5029 0.891429 0 0 0 1 2
281 1 17.8286 17.8286 0 0 0 0 1 3
282 1 17.8408 19.6085 1.78833 -1.04441 0.498343 0.490087 1 1
283 1 19.6129 17.8366 1.76567 -1.50112 9.78322 -3.87728 1 1
284 1 19.6114 19.6114 0 0 0 0 1 3
285 1 18.72 18.72 0.891429 0 0 0 1 2
286 1 18.7158 20.5292 2.66391 -3.16795 7.33918 1.31655 1 1
287 1 20.5264 18.754 2.66773 1.87213 -3.47105 0.690501 1 1
288 1 20.5029 20.5029 0.891429 0 0 0 1 2
289 1 0.0128599 0.0568475 3.55854 10.7345 -5.30875 8.53557 1 1
290 1 21.367 1.80292 5.36576 -2.41468 -0.0728806 0.395363 1 1
291 1 1.72608 0.0575988 5.3848 4.29725 -3.30398 0.272031 1 1
292 1 1.79776 1.77419 3.60019 -0.364007 -4.86195 0.168231 1 1
293 1 0.906682 0.911934 4.47523 2.76481 7.13076 4.79454 1 1
294 1 0.888184 2.66765 6.33285 1.27575 0.287082 0.775634 1 1
295 1 2.68201 0.847924 6.28178 -7.75771 1.19968 1.77165 1 1
296 1 2.6998 2.69378 4.50331 6.14904 1.27858 -0.249587 1 1
297 1 3.55141 0.037311 3.58283 -10.0621 1.49213 -5.86377 1 1
298 1 3.51827 1.75708 5.41757 0.52581 1.06153 5.48189 1 1
299 1 5.33084 21.3608 5.41553 -12.028 -5.13662 -1.81376 1 1
300 1 5.30455 1.80091 3.60294 1.07128 6.90323 1.16291 1 1
301 1 4.43899 0.849881 4.43713 5.75907 -2.05714 -0.580311 1 1
302 1 4.42519 2.70322 6.27966 -9.50955 -3.8315 6.63725 1 1
303 1 6.20196 0.880296 6.27715 3.55474 -1.85052 1.38079 1 1
304 1 6.23166 2.65725 4.48015 7.03802 -6.95179 4.54268 1 1
305 1 7.10977 0.00612936 3.58336 1.2991 -1.86904 3.22031 1 1
306 1 7.14002 1.77914 5.37853 -3.03151 2.40208 6.06706 1 1
307 1 8.8984 0.0212963 5.39314 -5.22024 2.69341 5.22805 1 1
308 1 8.86529 1.73852 3.53373 7.30149 1.24737 5.10788 1 1
309 1 7.96866 0.891342 4.43146 -0.993546 -1.72468 -4.91845 1 1
310 1 8.03187 2.66664 6.27701 8.39221 -0.358745 1.36635 1 1
311 1 9.78773 0.872667 6.30836 -0.574919 -9.45081 5.40235 1 1
312 1 9.80427 2.66838 4.43111 3.09656 2.42375 1.71778 1 1
313 1 10.6559 0.0193096 3.56583 -1.24477 3.05653 0.882242 1 1
314 1 10.6392 1.79213 5.3573 -5.1672 4.59842 -4.0374 1 1
315 1 12.4715 21.3683 5.31731 -7.11505 -2.51356 3.17685 1 1
316 1 12.4713 1.76965 3.58066 -4.87599 1.44427 -4.53199 1 1
317 1 11.5383 0.868085 4.45017 -4.47196 -1.17433 -2.2941 1 1
318 1 11.5481 2.66155 6.29506 7.72105 1.24218 5.23912 1 1
319 1 13.334 0.888856 6.23873 -0.154328 4.98049 3.5513 1 1
320 1 13.3399 2.64221 4.48927 8.89553 -1.29451 -6.00965 1 1
321 1 14.2569 0.00836427 3.58847 -4.24721 1.669 -7.1816 1 1
322 1 14.235 1.7662 5.39448 6.92658 -3.11918 1.43108 1 1
323 1 16.0378 21.3539 5.34379 -2.70886 3.38953 -3.61273 1 1
324 1 16.0759 1.7368 3.56236 4.74609 3.23428 -4.58309 1 1
325 1 15.1644 0.874766 4.47386 5.39539 8.21661 -2.47078 1 1
326 1 15.155 2.67051 6.27823 -1.94438 2.59252 -2.59347 1 1
327 1 16.8897 0.852452 6.24263 0.954736 0.0388614 3.29687 1 1
328 1 16.9624 2.62067 4.47721 -9.38291 7.00342 -0.998991 1 1
329 1 17.85 21.3772 3.56536 2.96336 0.316518 -5.40028 1 1
330 1 17.8236 1.7596 5.40703 7.22447 -5.99316 -0.396384 1 1
331 1 19.6059 21.3659 5.40955 -0.943781 2.70625 -4.16931 1 1
332 1 19.607 1.79049 3.59317 -1.35304 -0.0963661 -2.93469 1 1
333 1 18.7538 0.881217 4.45275 0.370536 5.90603 9.21903 1 1
334 1 18.6605 2.62989 6.27197 0.313927 5.16164 0.156103 1 1
335 1 20.5086 0.893042 6.26846 -2.20771 0.283846 -3.26615 1 1
336 1 20.4973 2.65053 4.43526 -3.02807 -1.72567 6.04508 1 1
337 1 21.3825 3.54882 3.57598 4.76808 2.72966 4.78353 1 1
338 1 0.036302 5.31942 5.39536 7.41197 6.42775 -0.403968 1 1
339 1 1.76908 3.55711 5.39865 1.23895 -0.394623 -2.63341 1 1
340 1 1.81589 5.38205 3.60383 -3.10773 -2.5614 -3.06632 1 1
341 1 0.891027 4.42437 4.49082 3.83461 -4.56277 -2.32153 1 1
342 1 0.921446 6.25893 6.22279 -0.442222 -4.4194 0.587781 1 1
343 1 2.69628 4.46704 6.28415 -1.71502 -2.56579 0.932122 1 1
344 1 2.69821 6.26433 4.46566 6.78793 9.8275 -0.927837 1 1
345 1 3.57079 3.58482 3.69119 2.98151 -2.62869 -3.35402 1 1
346 1 3.60735 5.38622 5.402 10.8253 0.858477 4.2914 1 1
347 1 5.36178 3.53961 5.39969 -5.66673 1.62057 -0.801156 1 1
348 1 5.33177 5.33141 3.59244 1.28296 -2.52077 -3.49791 1 1
349 1 4.48593 4.45672 4.54239 2.05813 1.4935 2.16578 1 1
350 1 4.48159 6.24229 6.30245 -2.06682 7.00888 1.4122 1 1
351 1 6.27904 4.4656 6.28915 0.43038 6.47788 -4.43266 1 1
352 1 6.26748 6.22177 4.47828 3.13083 -7.42434 2.04266 1 1
353 1 7.10109 3.57055 3.59626 -0.126022 3.77926 4.4875 1 1
354 1 7.10821 5.34007 5.37191 2.71222 5.74008 -1.89851 1 1
355 1 8.93268 3.54563 5.36502 0.259116 2.9773 4.45853 1 1
356 1 8.9094 5.35732 3.53903 -11.1754 2.96315 9.80213 1 1
357 1 8.07258 4.45699 4.45424 2.16533 6.09098 3.17777 1 1
358 1 8.03415 6.2133 6.27531 3.96943 0.311229 6.83528 1 1
359 1 9.78214 4.46321 6.28574 3.77554 -1.80498 10.7083 1 1
360 1 9.7886 6.23332 4.48768 2.71161 -0.370575 -0.0744529 1 1
361 1 10.7078 3.57153 3.59168 13.4343 -0.995992 1.27722 1 1
362 1 10.6255 5.34432 5.36401 2.28214 6.31214 1.31866 1 1
363 1 12.458 3.54882 5.41288 -4.09183 -3.85344 3.88493 1 1
364 1 12.4527 5.31541 3.55872 -1.85184 14.1532 -2.21053 1 1
365 1 11.5679 4.43508 4.52212 -1.39672 -2.53216 1.00087 1 1
366 1 11.5686 6.20291 6.2714 -8.01248 -1.14976 -1.75586 1 1
367 1 13.3666 4.45645 6.27509 3.80105 1.40595 1.8184 1 1
368 1 13.3601 6.26986 4.47735 1.53563 2.93295 8.62244 1 1
369 1 14.2222 3.5598 3.60051 -10.7858 -0.432624 -2.25111 1 1
370 1 14.2773 5.36962 5.40597 -7.59309 -2.55995 -3.61763 1 1
371 1 16.0475 3.55489 5.42054 2.69205 5.40719 4.90501 1 1
372 1 16.0269 5.31276 3.59341 -10.1379 1.69559 0.958544 1 1
373 1 15.1805 4.43462 4.50827 -1.256 -6.79603 2.60386 1 1
374 1 15.141 6.27441 6.33186 2.10938 2.0306 5.36343 1 1
375 1 16.9499 4.4516 6.30459 -3.66607 3.52781 5.57252 1 1
376 1 16.9222 6.17872 4.46157 3.02545 0.384041 3.65048 1 1
377 1 17.8427 3.54347 3.61938 -3.23042 0.774428 -10.0948 1 1
378 1 17.8269 5.36586 5.34634 -3.21855 4.11209 1.60823 1 1
379 1 19.6057 3.53901 5.33863 -4.51335 -7.90623 -4.04417 1 1
380 1 19.686 5.32765 3.56136 3.65348 5.74753 4.14385 1 1
381 1 18.7283 4.45918 4.48954 4.1343 1.01384 -4.2833 1 1
382 1 18.7108 6.23047 6.22043 -0.55036 -4.17115 -1.10302 1 1
383 1 20.5025 4.41832 6.315 1.84699 -3.74732 6.18876 1 1
384 1 20.5075 6.20652 4.462 7.00979 -0.335564 0.429685 1 1
385 1 0.021197 7.12127 3.56953 7.6299 6.3091 9.42104 1 1
386 1 21.3481 8.9347 5.3721 -0.609066 -0.144505 4.93214 1 1
387 1 1.79411 7.12979 5.35512 -0.209067 -4.6567 -1.38386 1 1
388 1 1.78158 8.90046 3.55651 8.73078 2.94447 6.53328 1 1
389 1 0.873362 8.02284 4.4751 5.34869 5.86469 0.212468 1 1
390 1 0.88669 9.81083 6.28673 -1.7833 -7.58364 -2.66217 1 1
391 1 2.69528 8.00657 6.27235 7.17869 1.84531 0.725862 1 1
392 1 2.65782 9.81922 4.46723 -4.34285 -4.49775 1.20507 1 1
393 1 3.56342 7.12551 3.54467 5.39089 7.90342 10.2351 1 1
394 1 3.58147 8.91978 5.38322 -2.42383 7.99808 3.80419 1 1
395 1 5.32211 7.14212 5.36142 2.47798 3.76396 0.377579 1 1
396 1 5.34611 8.91844 3.57906 2.13048 -0.598479 -3.0033 1 1
397 1 4.47574 8.03743 4.44418 4.81821 -4.80248 -0.979362 1 1
398 1 4.47547 9.76911 6.26463 9.90647 -1.91603 -3.67744 1 1
399 1 6.23461 8.02078 6.25119 1.58584 1.49507 0.465665 1 1
400 1 6.22452 9.75669 4.44753 9.45775 5.42904 -3.01764 1 1
401 1 7.14477 7.10028 3.61613 2.97215 -4.82452 -5.17862 1 1
402 1 7.17631 8.89354 5.3608 -6.34902 -1.48736 2.71466 1 1
403 1 8.8905 7.12685 5.38203 -5.71783 -0.335747 -11.9351 1 1
404 1 8.91576 8.91998 3.56437 -0.310381 2.64146 4.89443 1 1
405 1 8.033 8.02774 4.47693 -0.414885 3.93395 2.8192 1 1
406 1 8.02674 9.79036 6.23317 4.60942 6.22286 4.36477 1 1
407 1 9.79093 8.0127 6.30083 -0.305982 -2.58764 -7.31167 1 1
408 1 9.82239 9.8163 4.4611 1.34128 -0.878203 7.51348 1 1
409 1 10.6066 7.15633 3.57504 6.99312 4.26875 3.88172 1 1
410 1 10.7045 8.89724 5.35581 2.89521 -5.59976 2.10826 1 1
411 1 12.4884 7.13844 5.3632 -1.88936 2.63682 2.54331 1 1
412 1 12.4796 8.89058 3.5759 2.39754 9.8737 -3.64796 1 1
413 1 11.5487 8.01471 4.45219 0.896974 1.58921 -1.77075 1 1
414 1 11.563 9.78548 6.27832 -1.85454 3.61364 -1.85744 1 1
415 1 13.3795 7.9816 6.26947 -1.64883 -1.63608 6.2518 1 1
416 1 13.3508 9.75483 4.48259 -4.61398 -1.71809 -0.824929 1 1
417 1 14.268 7.13548 3.59248 -3.1268 -4.27715 4.25514 1 1
418 1 14.2642 8.91255 5.34193 -0.962393 -0.0573679 3.72832 1 1
419 1 16.0285 7.16096 5.42086 -5.26629 -5.49298 1.57619 1 1
420 1 16.0152 8.93151 3.62141 -2.42589 -2.49802 4.03973 1 1
421 1 15.1766 8.02268 4.50605 0.855408 -3.63602 -0.85695 1 1
422 1 15.1778 9.80406 6.25999 -1.63929 3.8355 2.89211 1 1
423 1 16.9397 8.04245 6.29671 2.86468 -2.06919 -6.45621 1 1
424 1 16.9576 9.80391 4.50621 6.69142 -0.244285 3.31451 1 1
425 1 17.8468 7.0486 3.57445 1.96491 -9.69424 -1.70575 1 1
426 1 17.8262 8.88757 5.40182 -0.403171 6.36099 -10.4876 1 1
427 1 19.615 7.15483 5.37475 7.76059 8.31609 6.1567 1 1
428 1 19.5793 8.93411 3.54296 -2.29472 1.46244 -1.64276 1 1
429 1 18.7017 8.02184 4.48092 -1.45812 -7.35641 4.90522 1 1
430 1 18.695 9.8345 6.2888 -0.123079 -3.64211 -2.1545 1 1
431 1 20.4957 8.03515 6.29097 -0.524948 -1.59415 1.8366 1 1
432 1 20.4729 9.81901 4.46401 2.86782 -0.0692572 1.7066 1 1
433 1 0.00135631 10.7261 3.57884 1.36423 -0.894388 -5.33282 1 1
434 1 21.3879 12.4392 5.37565 -0.450377 1.5288 -4.77507 1 1
435 1 1.7655 10.7082 5.37235 7.2814 1.42022 -8.80783 1 1
436 1 1.7864 12.513 3.6046 -3.30815 -1.1506 -0.881308 1 1
437 1 0.889204 11.6107 4.49743 -0.939249 -6.10102 -3.53906 1 1
438 1 0.885855 13.3337 6.28669 -2.76826 11.3886 2.7029 1 1
439 1 2.72804 11.5492 6.25792 -6.57253 -5.20529 -9.69688 1 1
440 1 2.67549 13.3688 4.45957 5.85734 -13.4294 -2.80831 1 1
441 1 3.5514 10.6725 3.55462 3.10317 3.25777 8.06643 1 1
442 1 3.62407 12.4773 5.34123 10.284 -1.78906 2.61522 1 1
443 1 5.37046 10.6533 5.39072 -1.60887 4.77489 -2.91353 1 1
444 1 5.36242 12.4635 3.56526 -1.55612 -3.96909 1.995 1 1
445 1 4.453 11.5717 4.43649 2.57247 0.57566 0.925524 1 1
446 1 4.45853 13.3367 6.25101 -0.127786 7.26455 -1.24984 1 1
447 1 6.29481 11.5541 6.29709 7.15917 -0.625535 -2.76877 1 1
448 1 6.24451 13.3698 4.45534 -1.6991 -3.95776 2.19025 1 1
449 1 7.13778 10.6544 3.54597 -3.4118 7.38987 7.57764 1 1
450 1 7.12552 12.4874 5.34336 -3.66686 9.14864 1.26218 1 1
451 1 8.89714 10.6983 5.35558 0.315779 -6.02504 -0.376934 1 1
452 1 8.91986 12.4662 3.52468 -0.419193 -2.71776 0.236451 1 1
453 1 8.02434 11.6008 4.47181 -0.867748 -1.95447 5.37301 1 1
454 1 8.04383 13.3677 6.26382 -4.93752 0.811097 -2.30913 1 1
455 1 9.77655 11.6087 6.25926 1.90113 1.35302 4.90738 1 1
456 1 9.81709 13.343 4.41408 3.03481 -2.92374 6.59977 1 1
457 1 10.7117 10.7206 3.57107 -2.09112 6.68537 4.73565 1 1
458 1 10.6857 12.4705 5.36803 1.74938 -3.46788 0.516832 1 1
459 1 12.5039 10.6726 5.38853 -2.09988 1.55011 3.50861 1 1
460 1 12.4931 12.4181 3.55856 -2.72389 -5.43872 -0.912978 1 1
461 1 11.5858 11.5598 4.50636 1.1687 8.0978 -2.62519 1 1
462 1 11.5388 13.3785 6.2555 6.05509 3.39456 -2.56937 1 1
463 1 13.3536 11.6209 6.29713 -3.31005 2.18003 1.10532 1 1
464 1 13.3725 13.3262 4.47378 6.37794 -1.66043 9.33085 1 1
465 1 14.2271 10.656 3.55502 8.88224 -1.94245 -5.22993 1 1
466 1 14.2983 12.4806 5.3907 6.53173 -2.65464 4.26897 1 1
467 1 16.0957 10.6728 5.36385 -1.57433 -0.416714 3.8464 1 1
468 1 16.078 12.4908 3.56787 3.91612 5.5074 -6.76445 1 1
469 1 15.1792 11.5803 4.45104 6.33012 0.427453 0.187306 1 1
470 1 15.1221 13.3601 6.31189 7.36951 -2.3133 -2.99646 1 1
471 1 16.9431 11.5787 6.26624 3.41346 -3.63109 2.5257 1 1
472 1 16.9176 13.3822 4.53822 -11.0789 -0.502386 1.73791 1 1
473 1 17.8481 10.6798 3.55687 -3.69285 4.38065 -1.83975 1 1
474 1 17.8224 12.4884 5.43464 9.61358 3.99928 -0.569421 1 1
475 1 19.5853 10.7411 5.36522 -0.534309 2.67883 -6.23728 1 1
476 1 19.5562 12.4765 3.55451 -0.42675 -0.0581248 3.96733 1 1
477 1 18.6911 11.639 4.47367 -2.2646 4.32565 7.92144 1 1
478 1 18.7096 13.4068 6.29566 4.38194 -5.80823 2.21133 1 1
479 1 20.4825 11.6164 6.28905 -5.16644 -9.23031 -3.94841 1 1
480 1 20.4449 13.3664 4.47235 -4.89827 -2.09614 2.0536 1 1
481 1 21.3719 14.2775 3.58073 4.25645 3.34646 -0.897094 1 1
482 1 0.0181703 16.0188 5.39403 -0.605012 -4.70781 6.64241 1 1
483 1 1.82973 14.2234 5.37897 0.765135 -0.674889 2.41216 1 1
484 1 1.78329 16.0082 3.58756 9.72921 8.81355 -2.06138 1 1
485 1 0.876987 15.1116 4.51332 -3.28584 -2.28418 7.85346 1 1
486 1 0.932839 16.9209 6.27451 0.399831 4.2618 5.24316 1 1
487 1 2.68803 15.1495 6.26883 7.97718 1.51766 5.79043 1 1
488 1 2.65342 16.9535 4.48115 -6.09425 0.0475795 0.815008 1 1
489 1 3.5583 14.2672 3.55422 -1.12357 2.66922 -4.1391 1 1
490 1 3.55263 16.0409 5.37734 7.92733 4.36714 -0.626187 1 1
491 1 5.3334 14.2509 5.36371 2.40913 9.51121 4.66771 1 1
492 1 5.39216 16.0013 3.53629 -7.74671 1.26448 -10.0584 1 1
493 1 4.47619 15.1408 4.46356 -3.22268 4.48749 1.65472 1 1
494 1 4.44799 16.9002 6.24261 -0.419925 -0.213433 0.845978 1 1
495 1 6.22913 15.1055 6.22864 -2.73967 2.92016 -3.93088 1 1
496 1 6.2633 16.889 4.46274 4.18397 9.39385 0.543987 1 1
497 1 7.16633 14.2583 3.58842 2.97941 4.04939 -3.36101 1 1
498 1 7.13585 16.0115 5.35828 -0.364885 6.82587 2.19872 1 1
499 1 8.96518 14.2598 5.35956 0.51978 -4.3558 1.13549 1 1
500 1 8.92413 16.0385 3.58721 0.630381 -4.42705 -0.936126 1 1
501 1 8.04059 15.1225 4.44429 2.13707 5.79867 -4.51797 1 1
502 1 8.05398 16.9284 6.25279 -1.13476 -6.01215 -1.52657 1 1
503 1 9.77565 15.1825 6.26379 -6.27245 -5.00438 0.039341 1 1
504 1 9.82656 16.9986 4.44876 -6.98773 1.66399 -2.81715 1 1
505 1 10.7419 14.2703 3.53063 6.31277 0.999883 1.44819 1 1
506 1 10.727 16.0497 5.38961 -4.80108 -3.68098 -6.32082 1 1
507 1 12.4657 14.2501 5.38063 4.07881 0.789617 3.04382 1 1
508 1 12.5014 16.0413 3.57327 3.93641 0.515904 -3.7197 1 1
509 1 11.5773 15.1477 4.46718 -3.66344 -2.44308 2.599 1 1
510 1 11.5899 16.9376 6.30028 -7.66316 1.08655 1.90555 1 1
511 1 13.3575 15.1491 6.27266 -1.25714 -2.79754 1.22684 1 1
512 1 13.3725 16.918 4.47051 6.17977 1.47792 1.14805 1 1
513 1 14.286 14.2538 3.56758 -2.29941 -0.00935121 -13.5487 1 1
514 1 14.2122 16.0019 5.37032 2.0554 5.02693 0.487478 1 1
515 1 16.0294 14.2351 5.40487 1.72353 5.23683 1.4144 1 1
516 1 16.0262 16.0409 3.62812 -1.92027 8.82598 -13.5248 1 1
517 1 15.1133 15.1534 4.48788 10.76 0.69743 -5.85795 1 1
518 1 15.1289 16.9083 6.28374 10.2324 -3.18346 7.46281 1 1
519 1 16.9074 15.1297 6.29736 -6.19106 2.28578 3.4758 1 1
520 1 16.9685 16.8893 4.48753 4.31566 7.68218 4.99404 1 1
521 1 17.8341 14.2463 3.58221 -2.82999 5.64413 2.88615 1 1
522 1 17.8327 16.0527 5.3952 -5.13185 -2.64478 2.49622 1 1
523 1 19.619 14.2967 5.44603 0.428872 -7.45052 1.73362 1 1
524 1 19.6278 16.0655 3.56511 13.686 2.53315 5.46202 1 1
525 1 18.7235 15.1615 4.49015 -3.00066 -2.9353 2.47991 1 1
526 1 18.724 16.9784 6.29347 -2.47033 -3.87488 -2.09969 1 1
527 1 20.5074 15.1901 6.32737 -6.01763 2.09761 7.6186 1 1
528 1 20.5157 16.9555 4.46432 1.32678 10.8764 3.20134 1 1
529 1 0.0342255 17.8522 3.55953 6.95737 -2.1833 3.08661 1 1
530 1 21.3426 19.6157 5.36219 10.7277 4.995 -7.90121 1 1
531 1 1.79233 17.8736 5.39827 2.78683 -7.61736 2.0959 1 1
532 1 1.80256 19.6283 3.574 5.9439 -1.71042 0.86308 1 1
533 1 0.904664 18.7497 4.47262 -6.22505 2.66492 -7.83784 1 1
534 1 0.834687 20.4867 6.26064 -4.05089 2.34035 8.85561 1 1
535 1 2.68795 18.7386 6.32047 -1.93063 -1.77334 2.44469 1 1
536 1 2.66554 20.5436 4.48464 7.07074 7.76217 3.73095 1 1
537 1 3.53933 17.846 3.604 -3.92389 1.04509 -3.56565 1 1
538 1 3.555 19.6298 5.39828 -4.06597 8.36517 -0.497168 1 1
539 1 5.34706 17.7673 5.3627 4.94001 0.50273 -2.5367 1 1
540 1 5.34321 19.5867 3.5878 -1.88843 0.963731 -4.5707 1 1
541 1 4.44025 18.69 4.51641 -2.159 4.4344 -4.76221 1 1
542 1 4.43168 20.4914 6.28259 -2.8848 -1.68771 5.46172 1 1
543 1 6.27778 18.7208 6.24946 -1.23037 -0.196665 2.14667 1 1
544 1 6.21506 20.534 4.49161 6.26053 4.61339 -3.00556 1 1
545 1 7.14274 17.832 3.5553 7.58717 -4.39225 -1.61921 1 1
546 1 7.15572 19.6174 5.39168 -7.47495 4.24701 -8.21181 1 1
547 1 8.91022 17.8498 5.37698 -1.86972 0.437566 2.65709 1 1
548 1 8.93518 19.6294 3.59752 -7.84847 3.05777 8.21444 1 1
549 1 8.03863 18.7272 4.46919 -5.42899 -4.01213 8.83472 1 1
550 1 8.02867 20.5277 6.27857 -10.1011 -5.97881 8.62649 1 1
551 1 9.80984 18.7113 6.26902 -4.55943 8.71836 4.07314 1 1
552 1 9.79091 20.5439 4.49031 2.76193 -1.16928 4.50563 1 1
553 1 10.6855 17.8593 3.60768 -0.237208 -4.03583 0.389 1 1
554 1 10.6648 19.6104 5.37232 -2.03626 -3.22373 -5.65091 1 1
555 1 12.455 17.8276 5.36776 3.2254 4.60919 5.02054 1 1
556 1 12.505 19.6201 3.5964 8.37569 -5.66046 5.03239 1 1
557 1 11.5817 18.7194 4.50279 -4.82701 2.71054 -1.85247 1 1