ITEM: TIMESTEP
150
ITEM: NUMBER OF ATOMS
2953
ITEM: BOX BOUNDS pp pp mm
0.0000000000000000e+00 2.1394294200000001e+01
0.0000000000000000e+00 2.1394294200000001e+01
-4.4571446250000002e-01 5.3485735500000004e+01
ITEM: ATOMS id type x y z vx vy vz v_is_diamond c_structure_type
1 1 0 0 0 0 0 0 1 3
2 1 0.0406591 1.79358 1.774 -7.5137 3.20553 -1.99472 1 1
3 1 1.7986 0.025903 1.80041 -0.615635 -1.49248 4.75123 1 1
4 1 1.78286 1.78286 0 0 0 0 1 3
5 1 0.891429 0.891429 0.891429 0 0 0 1 2
6 1 0.902912 2.72239 2.62828 1.90356 -1.9272 2.36258 1 1
7 1 2.63662 0.964759 2.66004 4.30942 0.80887 -3.46871 1 1
8 1 2.67429 2.67429 0.891429 0 0 0 1 2
9 1 3.56572 0 0 0 0 0 1 3
10 1 3.57119 1.81376 1.76867 0.783215 3.12536 0.456748 1 1
11 1 5.29077 0.0163305 1.84901 1.03888 7.60173 2.11738 1 1
12 1 5.34857 1.78286 0 0 0 0 1 3
13 1 4.45714 0.891429 0.891429 0 0 0 1 2
14 1 4.45994 2.6548 2.76457 -1.56036 -4.95532 -8.38967 1 1
15 1 6.20294 0.922592 2.66879 -3.12433 4.80879 0.542481 1 1
16 1 6.24 2.67429 0.891429 0 0 0 1 2
17 1 7.13143 0 0 0 0 0 1 3
18 1 7.09147 1.77878 1.76402 -7.28241 4.1177 5.07737 1 1
19 1 8.90825 0.0117552 1.7398 -2.50063 -7.82431 0.690146 1 1
20 1 8.91429 1.78286 0 0 0 0 1 3
21 1 8.02286 0.891429 0.891429 0 0 0 1 2
22 1 7.96453 2.66262 2.6585 1.06126 -0.129012 0.878103 1 1
23 1 9.76502 0.875925 2.64583 2.76006 -0.00385177 -0.600512 1 1
24 1 9.80572 2.67429 0.891429 0 0 0 1 2
25 1 10.6971 0 0 0 0 0 1 3
26 1 10.6955 1.76333 1.76503 0.102453 2.6779 0.85759 1 1
27 1 12.4564 21.3913 1.8251 3.05867 -0.85059 -2.72482 1 1
28 1 12.48 1.78286 0 0 0 0 1 3
29 1 11.5886 0.891429 0.891429 0 0 0 1 2
30 1 11.5509 2.65836 2.65948 2.59163 7.39556 0.228278 1 1
31 1 13.3838 0.858028 2.72712 10.367 1.09004 5.24988 1 1
32 1 13.3714 2.67429 0.891429 0 0 0 1 2
33 1 14.2629 0 0 0 0 0 1 3
34 1 14.2275 1.77326 1.82417 -2.17689 -6.82213 -3.57644 1 1
35 1 16.0436 0.0126902 1.81471 -0.0623741 -3.61348 4.78029 1 1
36 1 16.0457 1.78286 0 0 0 0 1 3
37 1 15.1543 0.891429 0.891429 0 0 0 1 2
38 1 15.1624 2.66238 2.70059 -2.9157 0.429504 -1.12339 1 1
39 1 16.932 0.879452 2.66142 -0.908275 3.58006 5.13754 1 1
40 1 16.9371 2.67429 0.891429 0 0 0 1 2
41 1 17.8286 0 0 0 0 0 1 3
42 1 17.8046 1.76139 1.75097 -1.4263 0.392042 -0.608523 1 1
43 1 19.6061 0.0441666 1.75307 8.65493 -0.689302 12.3958 1 1
44 1 19.6114 1.78286 0 0 0 0 1 3
45 1 18.72 0.891429 0.891429 0 0 0 1 2
46 1 18.735 2.6717 2.66959 0.824218 2.58723 0.855648 1 1
47 1 20.5239 0.926251 2.65049 -6.13034 9.4276 -2.85046 1 1
48 1 20.5029 2.67429 0.891429 0 0 0 1 2
49 1 0 3.56572 0 0 0 0 1 3
50 1 0.0168773 5.36659 1.77863 2.29379 1.32005 -2.01229 1 1
51 1 1.82734 3.59624 1.78493 -5.54043 -0.497879 -1.24862 1 1
52 1 1.78286 5.34857 0 0 0 0 1 3
53 1 0.891429 4.45714 0.891429 0 0 0 1 2
54 1 0.9181 6.24729 2.70551 1.2269 -1.93056 3.11095 1 1
55 1 2.71437 4.46413 2.69935 -9.2569 2.80829 4.98706 1 1
56 1 2.67429 6.24 0.891429 0 0 0 1 2
57 1 3.56572 3.56572 0 0 0 0 1 3
58 1 3.58255 5.35282 1.78668 -1.13958 -8.0611 -0.856647 1 1
59 1 5.32598 3.57228 1.79957 -0.960986 -0.0547025 0.497999 1 1
60 1 5.34857 5.34857 0 0 0 0 1 3
61 1 4.45714 4.45714 0.891429 0 0 0 1 2
62 1 4.47584 6.24532 2.68564 5.4615 -1.32713 -5.22163 1 1
63 1 6.23854 4.47132 2.69661 4.46415 0.362553 0.461554 1 1
64 1 6.24 6.24 0.891429 0 0 0 1 2
65 1 7.13143 3.56572 0 0 0 0 1 3
66 1 7.11686 5.36763 1.76377 -0.295785 -4.97513 2.23608 1 1
67 1 8.93005 3.58946 1.82059 -1.94716 -2.22476 7.59229 1 1
68 1 8.91429 5.34857 0 0 0 0 1 3
69 1 8.02286 4.45714 0.891429 0 0 0 1 2
70 1 8.02132 6.22381 2.68225 0.776126 4.3313 2.69623 1 1
71 1 9.81549 4.45611 2.70154 -0.606967 -0.155399 -1.27923 1 1
72 1 9.80572 6.24 0.891429 0 0 0 1 2
73 1 10.6971 3.56572 0 0 0 0 1 3
74 1 10.7002 5.33382 1.82593 7.36641 -3.00781 1.58938 1 1
75 1 12.4611 3.54995 1.77965 5.72789 3.29951 0.927618 1 1
76 1 12.48 5.34857 0 0 0 0 1 3
77 1 11.5886 4.45714 0.891429 0 0 0 1 2
78 1 11.5607 6.26505 2.70181 -4.09586 11.0027 8.71399 1 1
79 1 13.3689 4.45106 2.65971 2.81609 -3.91745 7.84119 1 1
80 1 13.3714 6.24 0.891429 0 0 0 1 2
81 1 14.2629 3.56572 0 0 0 0 1 3
82 1 14.279 5.35044 1.76333 -0.239011 5.61278 0.967365 1 1
83 1 16.0357 3.5267 1.78904 -5.33457 0.415584 5.24552 1 1
84 1 16.0457 5.34857 0 0 0 0 1 3
85 1 15.1543 4.45714 0.891429 0 0 0 1 2
86 1 15.1894 6.2005 2.69054 2.54785 0.60284 -6.82132 1 1
87 1 16.9408 4.42265 2.65784 7.4591 -6.81346 1.19618 1 1
88 1 16.9371 6.24 0.891429 0 0 0 1 2
89 1 17.8286 3.56572 0 0 0 0 1 3
90 1 17.8212 5.35771 1.78232 -8.45308 -1.62051 -0.618904 1 1
91 1 19.6133 3.55021 1.77682 -3.63278 -0.994629 -8.70623 1 1
92 1 19.6114 5.34857 0 0 0 0 1 3
93 1 18.72 4.45714 0.891429 0 0 0 1 2
94 1 18.7782 6.21073 2.63028 -8.8339 3.018 4.3781 1 1
95 1 20.5363 4.41869 2.70667 -2.54838 -0.105909 7.90839 1 1
96 1 20.5029 6.24 0.891429 0 0 0 1 2
97 1 0 7.13143 0 0 0 0 1 3
98 1 0.0374317 8.88677 1.76006 5.02764 1.71784 2.34862 1 1
99 1 1.79972 7.10737 1.789 -2.64749 -0.0446528 -0.385158 1 1
100 1 1.78286 8.91429 0 0 0 0 1 3
101 1 0.891429 8.02286 0.891429 0 0 0 1 2
102 1 0.894908 9.79654 2.66068 -1.35635 -0.979805 9.05895 1 1
103 1 2.69471 7.9695 2.68013 5.64187 9.60961 -10.6367 1 1
104 1 2.67429 9.80572 0.891429 0 0 0 1 2
105 1 3.56572 7.13143 0 0 0 0 1 3
106 1 3.56037 8.86019 1.78525 -3.25635 -1.86655 -8.11231 1 1
107 1 5.36482 7.1132 1.82324 5.53524 -1.24747 -0.33652 1 1
108 1 5.34857 8.91429 0 0 0 0 1 3
109 1 4.45714 8.02286 0.891429 0 0 0 1 2
110 1 4.46488 9.78468 2.70309 -1.6131 -2.81599 -10.3326 1 1
111 1 6.27268 8.03134 2.68941 1.60299 1.67511 5.15348 1 1
112 1 6.24 9.80572 0.891429 0 0 0 1 2
113 1 7.13143 7.13143 0 0 0 0 1 3
114 1 7.15539 8.88842 1.81197 -2.74267 -9.03546 -7.27066 1 1
115 1 8.90854 7.11644 1.7808 -3.50161 1.89994 5.94045 1 1
116 1 8.91429 8.91429 0 0 0 0 1 3
117 1 8.02286 8.02286 0.891429 0 0 0 1 2
118 1 8.04712 9.81596 2.69956 6.3964 0.39693 -4.13571 1 1
119 1 9.74883 8.00533 2.66767 -2.11692 -1.61136 0.557103 1 1
120 1 9.80572 9.80572 0.891429 0 0 0 1 2
121 1 10.6971 7.13143 0 0 0 0 1 3
122 1 10.645 8.91203 1.79154 1.24077 -2.17489 3.62838 1 1
123 1 12.4853 7.12267 1.83716 -1.31657 -5.98537 -3.95457 1 1
124 1 12.48 8.91429 0 0 0 0 1 3
125 1 11.5886 8.02286 0.891429 0 0 0 1 2
126 1 11.5605 9.82759 2.70104 4.63762 -6.23222 11.7871 1 1
127 1 13.4015 7.99393 2.6984 -3.76347 2.45311 2.69291 1 1
128 1 13.3714 9.80572 0.891429 0 0 0 1 2
129 1 14.2629 7.13143 0 0 0 0 1 3
130 1 14.2905 8.89635 1.76311 -2.66905 0.457692 3.48242 1 1
131 1 16.0859 7.12272 1.77718 -2.77324 1.13091 0.885702 1 1
132 1 16.0457 8.91429 0 0 0 0 1 3
133 1 15.1543 8.02286 0.891429 0 0 0 1 2
134 1 15.1338 9.78391 2.67225 1.21903 -1.69356 7.08327 1 1
135 1 16.9864 8.00986 2.67109 -4.74466 6.04481 8.43665 1 1
136 1 16.9371 9.80572 0.891429 0 0 0 1 2
137 1 17.8286 7.13143 0 0 0 0 1 3
138 1 17.847 8.93806 1.78913 -4.12392 -0.173014 8.15357 1 1
139 1 19.6369 7.13567 1.79171 -9.70502 2.54809 1.66661 1 1
140 1 19.6114 8.91429 0 0 0 0 1 3
141 1 18.72 8.02286 0.891429 0 0 0 1 2
142 1 18.709 9.75333 2.69549 7.49501 -5.45377 -0.388378 1 1
143 1 20.4906 8.01727 2.69792 -4.25684 3.98882 -0.607731 1 1
144 1 20.5029 9.80572 0.891429 0 0 0 1 2
145 1 0 10.6971 0 0 0 0 1 3
146 1 0.0150963 12.5128 1.80971 -3.23548 3.71253 11.0077 1 1
147 1 1.77711 10.7183 1.8024 -1.15249 3.0061 -0.941272 1 1
148 1 1.78286 12.48 0 0 0 0 1 3
149 1 0.891429 11.5886 0.891429 0 0 0 1 2
150 1 0.889636 13.3852 2.723 -0.357682 3.66266 2.66054 1 1
151 1 2.63677 11.5902 2.67777 2.02512 -2.07574 -1.43152 1 1
152 1 2.67429 13.3714 0.891429 0 0 0 1 2
153 1 3.56572 10.6971 0 0 0 0 1 3
154 1 3.52773 12.5304 1.77304 -2.06888 -2.72778 9.93821 1 1
155 1 5.36204 10.6623 1.78691 -8.09975 1.43291 1.09159 1 1
156 1 5.34857 12.48 0 0 0 0 1 3
157 1 4.45714 11.5886 0.891429 0 0 0 1 2
158 1 4.46148 13.4189 2.6865 -0.254138 15.0652 4.29018 1 1
159 1 6.22104 11.5631 2.57612 7.44873 11.1711 -1.82741 1 1
160 1 6.24 13.3714 0.891429 0 0 0 1 2
161 1 7.13143 10.6971 0 0 0 0 1 3
162 1 7.10038 12.4764 1.74909 -1.90767 -7.12398 -7.60568 1 1
163 1 8.95092 10.696 1.78444 0.156071 0.154668 1.57761 1 1
164 1 8.91429 12.48 0 0 0 0 1 3
165 1 8.02286 11.5886 0.891429 0 0 0 1 2
166 1 7.99936 13.345 2.66976 3.8579 3.84107 -1.15965 1 1
167 1 9.83179 11.5569 2.6538 -1.66547 -2.65015 2.17747 1 1
168 1 9.80572 13.3714 0.891429 0 0 0 1 2
169 1 10.6971 10.6971 0 0 0 0 1 3
170 1 10.6477 12.4829 1.74745 3.58925 -0.038529 -11.7703 1 1
171 1 12.4525 10.6723 1.7872 -2.41479 4.44263 -1.8598 1 1
172 1 12.48 12.48 0 0 0 0 1 3
173 1 11.5886 11.5886 0.891429 0 0 0 1 2
174 1 11.624 13.3725 2.62572 -1.62461 -0.626552 2.39829 1 1
175 1 13.3824 11.5536 2.66761 -1.39023 0.0567483 -1.34323 1 1
176 1 13.3714 13.3714 0.891429 0 0 0 1 2
177 1 14.2629 10.6971 0 0 0 0 1 3
178 1 14.2819 12.4365 1.76914 -1.21087 5.88943 -0.725974 1 1
179 1 16.0471 10.684 1.78279 8.56704 -1.20324 -3.23571 1 1
180 1 16.0457 12.48 0 0 0 0 1 3
181 1 15.1543 11.5886 0.891429 0 0 0 1 2
182 1 15.171 13.3708 2.67351 -2.10686 -2.52629 -7.52014 1 1
183 1 16.993 11.6061 2.68634 4.09505 -3.83538 4.18658 1 1
184 1 16.9371 13.3714 0.891429 0 0 0 1 2
185 1 17.8286 10.6971 0 0 0 0 1 3
186 1 17.8116 12.4797 1.7835 -0.417613 0.711516 1.93453 1 1
187 1 19.6482 10.7081 1.78832 2.53716 1.03982 -1.9106 1 1
188 1 19.6114 12.48 0 0 0 0 1 3
189 1 18.72 11.5886 0.891429 0 0 0 1 2
190 1 18.7314 13.3765 2.65293 -1.06749 -4.57851 10.1763 1 1
191 1 20.4851 11.6445 2.69469 1.07142 2.28358 2.47664 1 1
192 1 20.5029 13.3714 0.891429 0 0 0 1 2
193 1 0 14.2629 0 0 0 0 1 3
194 1 0.0130109 16.0438 1.7577 -2.30865 9.05828 -9.00443 1 1
195 1 1.81351 14.255 1.78375 1.3374 -3.23772 3.69381 1 1
196 1 1.78286 16.0457 0 0 0 0 1 3
197 1 0.891429 15.1543 0.891429 0 0 0 1 2
198 1 0.842979 16.9261 2.65707 5.33643 3.96832 -8.14377 1 1
199 1 2.68188 15.1632 2.65839 -4.11153 2.20952 1.30457 1 1
200 1 2.67429 16.9371 0.891429 0 0 0 1 2
201 1 3.56572 14.2629 0 0 0 0 1 3
202 1 3.61318 16.0869 1.78203 7.00578 -10.9165 2.43646 1 1
203 1 5.39049 14.2509 1.80084 9.24215 2.51587 2.22794 1 1
204 1 5.34857 16.0457 0 0 0 0 1 3
205 1 4.45714 15.1543 0.891429 0 0 0 1 2
206 1 4.4862 16.9704 2.70323 -1.08742 0.771333 -3.4541 1 1
207 1 6.26776 15.1674 2.65656 -3.02595 -5.05628 -1.46524 1 1
208 1 6.24 16.9371 0.891429 0 0 0 1 2
209 1 7.13143 14.2629 0 0 0 0 1 3
210 1 7.14492 16.0553 1.75258 0.00102492 1.05098 -6.71033 1 1
211 1 8.88868 14.2684 1.76599 4.85517 -2.05101 0.888808 1 1
212 1 8.91429 16.0457 0 0 0 0 1 3
213 1 8.02286 15.1543 0.891429 0 0 0 1 2
214 1 8.03654 16.9711 2.68068 0.982234 3.13306 -13.2728 1 1
215 1 9.77938 15.1492 2.68674 -0.669025 -0.871857 -5.90071 1 1
216 1 9.80572 16.9371 0.891429 0 0 0 1 2
217 1 10.6971 14.2629 0 0 0 0 1 3
218 1 10.707 16.0548 1.78768 -1.70969 1.19865 7.2465 1 1
219 1 12.5046 14.2687 1.71587 -3.16433 5.43596 6.10205 1 1
220 1 12.48 16.0457 0 0 0 0 1 3
221 1 11.5886 15.1543 0.891429 0 0 0 1 2
222 1 11.5986 16.9984 2.6717 2.29336 1.8763 -4.60422 1 1
223 1 13.3818 15.1154 2.61805 1.4986 -0.12437 5.65108 1 1
224 1 13.3714 16.9371 0.891429 0 0 0 1 2
225 1 14.2629 14.2629 0 0 0 0 1 3
226 1 14.2562 16.0337 1.76648 -3.05157 7.51142 -3.40462 1 1
227 1 16.046 14.2419 1.75707 -2.73137 -8.98944 5.67924 1 1
228 1 16.0457 16.0457 0 0 0 0 1 3
229 1 15.1543 15.1543 0.891429 0 0 0 1 2
230 1 15.1532 16.9347 2.68895 1.97885 -6.79624 4.26613 1 1
231 1 16.9309 15.1808 2.69837 2.3514 11.8308 0.0385601 1 1
232 1 16.9371 16.9371 0.891429 0 0 0 1 2
233 1 17.8286 14.2629 0 0 0 0 1 3
234 1 17.8191 16.0812 1.78072 -7.11606 0.203628 -2.20814 1 1
235 1 19.6155 14.3043 1.74912 2.05741 7.05289 3.0871 1 1
236 1 19.6114 16.0457 0 0 0 0 1 3
237 1 18.72 15.1543 0.891429 0 0 0 1 2
238 1 18.6977 16.9613 2.66185 3.09228 -0.646847 -3.50308 1 1
239 1 20.5595 15.1629 2.66996 1.24045 -1.40792 -1.93141 1 1
240 1 20.5029 16.9371 0.891429 0 0 0 1 2
241 1 0 17.8286 0 0 0 0 1 3
242 1 0.0285156 19.5966 1.77798 4.42184 4.84228 -7.3716 1 1
243 1 1.77205 17.8554 1.77714 1.51457 -4.78236 8.92716 1 1
244 1 1.78286 19.6114 0 0 0 0 1 3
245 1 0.891429 18.72 0.891429 0 0 0 1 2
246 1 0.871943 20.5407 2.707 -1.08977 3.73806 5.29276 1 1
247 1 2.67568 18.7577 2.68476 2.08047 3.34403 1.37448 1 1
248 1 2.67429 20.5029 0.891429 0 0 0 1 2
249 1 3.56572 17.8286 0 0 0 0 1 3
250 1 3.54686 19.6141 1.75283 -2.081 -0.328627 -10.7595 1 1
251 1 5.3543 17.8434 1.79045 0.816635 4.99033 1.66293 1 1
252 1 5.34857 19.6114 0 0 0 0 1 3
253 1 4.45714 18.72 0.891429 0 0 0 1 2
254 1 4.46427 20.511 2.69051 -8.48756 6.2104 -0.298438 1 1
255 1 6.26315 18.7291 2.66172 3.07316 -6.95223 -1.60901 1 1
256 1 6.24 20.5029 0.891429 0 0 0 1 2
257 1 7.13143 17.8286 0 0 0 0 1 3
258 1 7.11161 19.6065 1.78206 -1.23099 -6.72578 1.44655 1 1
259 1 8.90102 17.8696 1.82582 -7.44035 0.311984 -0.26848 1 1
260 1 8.91429 19.6114 0 0 0 0 1 3
261 1 8.02286 18.72 0.891429 0 0 0 1 2
262 1 8.08087 20.5012 2.65647 -2.24777 0.463116 6.59165 1 1
263 1 9.80643 18.7485 2.72668 0.831567 -0.119303 -7.87488 1 1
264 1 9.80572 20.5029 0.891429 0 0 0 1 2
265 1 10.6971 17.8286 0 0 0 0 1 3
266 1 10.6807 19.6607 1.80164 8.99131 -4.90761 -0.101824 1 1
267 1 12.4574 17.8929 1.77634 6.30996 4.31861 -0.0344492 1 1
268 1 12.48 19.6114 0 0 0 0 1 3
269 1 11.5886 18.72 0.891429 0 0 0 1 2
270 1 11.5804 20.516 2.70159 -0.94152 -0.15709 6.53105 1 1
271 1 13.3817 18.7552 2.67863 -1.45143 -1.09431 2.68116 1 1
272 1 13.3714 20.5029 0.891429 0 0 0 1 2
273 1 14.2629 17.8286 0 0 0 0 1 3
274 1 14.2609 19.6045 1.78071 0.192395 -7.12523 4.11516 1 1
275 1 16.0711 17.8212 1.77638 0.599168 -2.20873 3.57404 1 1
276 1 16.0457 19.6114 0 0 0 0 1 3
277 1 15.1543 18.72 0.891429 0 0 0 1 2
278 1 15.1707 20.5198 2.67169 8.38238 1.13489 2.9948 1 1
279 1 16.9753 18.6971 2.66517 8.41313 -1.32278 4.06963 1 1
280 1 16.9371 20.5029 0.891429 0 0 0 1 2
281 1 17.8286 17.8286 0 0 0 0 1 3
282 1 17.8415 19.6082 1.78788 -0.916356 0.281431 0.749969 1 1
283 1 19.6141 17.8295 1.76871 -1.63198 9.54987 -4.38478 1 1
284 1 19.6114 19.6114 0 0 0 0 1 3
285 1 18.72 18.72 0.891429 0 0 0 1 2
286 1 18.7184 20.5236 2.66299 -3.8406 7.90532 1.21173 1 1
287 1 20.5249 18.7562 2.66726 2.21907 -2.50197 0.572989 1 1
288 1 20.5029 20.5029 0.891429 0 0 0 1 2
289 1 0.0047439 0.0603179 3.5526 11.368 -4.11657 7.66053 1 1
290 1 21.3691 1.80277 5.36557 -3.22604 0.468066 0.134822 1 1
291 1 1.72336 0.0592163 5.38459 3.12748 -1.08848 0.309771 1 1
292 1 1.79789 1.77846 3.59985 0.0423264 -6.74624 0.747899 1 1
293 1 0.904266 0.906979 4.47175 3.82908 6.35792 4.68923 1 1
294 1 0.887195 2.66736 6.33179 1.41925 0.499684 2.10504 1 1
295 1 2.68734 0.847612 6.28062 -6.74579 -0.353096 1.38796 1 1
296 1 2.69473 2.69253 4.50378 7.67513 2.12612 -1.02508 1 1
297 1 3.55862 0.0358287 3.58682 -9.58018 2.56813 -5.01184 1 1
298 1 3.51849 1.75645 5.41319 -1.11937 0.658305 6.46589 1 1
299 1 5.33951 21.3648 5.41646 -11.5753 -5.88743 -0.712635 1 1
300 1 5.3043 1.79543 3.6021 -0.383984 8.00118 1.1253 1 1
301 1 4.43487 0.85196 4.43838 5.44682 -3.61192 -2.84197 1 1
302 1 4.43253 2.70542 6.27483 -10.505 -2.16836 6.51097 1 1
303 1 6.19972 0.881728 6.27619 2.50434 -2.05774 1.23595 1 1
304 1 6.22645 2.66248 4.47707 7.14704 -7.27532 3.84995 1 1
305 1 7.10873 0.00749807 3.58075 1.51988 -1.84705 3.90162 1 1
306 1 7.14189 1.77732 5.37401 -2.04289 2.54725 6.2541 1 1
307 1 8.9021 0.0193293 5.38908 -4.87092 2.64796 5.8424 1 1
308 1 8.86012 1.73808 3.53008 6.81296 -0.0471976 4.81507 1 1
309 1 7.9699 0.89259 4.43558 -2.38419 -1.66556 -6.30276 1 1
310 1 8.02578 2.66684 6.27608 8.20701 -0.167656 1.18794 1 1
311 1 9.788 0.879868 6.30404 -0.190809 -10.166 6.38126 1 1
312 1 9.80171 2.66648 4.43013 3.87794 2.76892 0.94327 1 1
313 1 10.6569 0.0168703 3.56523 -1.52305 3.57907 0.752508 1 1
314 1 10.6434 1.78847 5.36043 -6.15401 5.36455 -4.50034 1 1
315 1 12.4766 21.3702 5.31532 -6.82359 -2.67149 2.24824 1 1
316 1 12.4747 1.76852 3.58399 -4.21467 1.6375 -4.56293 1 1
317 1 11.5418 0.86923 4.45195 -5.12324 -1.93624 -2.54512 1 1
318 1 11.5425 2.66066 6.29124 7.52533 1.18664 5.1654 1 1
319 1 13.3342 0.884958 6.23654 -0.447161 5.63153 2.41906 1 1
320 1 13.3335 2.64345 4.49372 8.63717 -2.09866 -6.13494 1 1
321 1 14.2603 0.00679981 3.59367 -5.09169 2.59304 -6.98845 1 1
322 1 14.2302 1.76858 5.39315 6.0878 -3.37144 2.16623 1 1
323 1 16.0396 21.3516 5.34657 -2.06539 2.81031 -3.97879 1 1
324 1 16.0721 1.73482 3.566 5.398 2.1879 -5.33323 1 1
325 1 15.1603 0.868776 4.47571 5.7882 8.10212 -2.57155 1 1
326 1 15.1562 2.66837 6.28027 -1.3889 3.23263 -2.95609 1 1
327 1 16.8894 0.852481 6.24046 -0.084963 -0.112697 2.64036 1 1
328 1 16.969 2.61589 4.47813 -8.66825 6.03685 -1.49185 1 1
329 1 17.8475 21.3771 3.56927 3.79324 -0.0330947 -5.22699 1 1
330 1 17.8182 1.76364 5.40686 7.53409 -5.00202 0.847055 1 1
331 1 19.6066 21.3642 5.41213 -1.11994 1.96692 -2.88002 1 1
332 1 19.6082 1.79039 3.59479 -1.89222 0.409046 -1.47677 1 1
333 1 18.7531 0.876823 4.44645 1.40993 6.06364 7.95915 1 1
334 1 18.661 2.6265 6.27196 -1.59663 4.06111 -0.137551 1 1
335 1 20.5099 0.89273 6.27122 -1.52348 0.564279 -4.25903 1 1
336 1 20.4995 2.65206 4.4313 -3.03576 -2.44217 4.75457 1 1
337 1 21.3794 3.54683 3.57244 3.64515 2.68522 4.87972 1 1
338 1 0.0304945 5.31484 5.39548 8.4217 6.03762 0.0761594 1 1
339 1 1.76839 3.55744 5.4006 0.651943 -0.506387 -2.67915 1 1
340 1 1.81794 5.38344 3.60593 -2.44562 -1.21552 -2.66319 1 1
341 1 0.888351 4.42789 4.49249 3.46586 -5.01377 -2.20657 1 1
342 1 0.921531 6.26178 6.22294 0.227626 -3.35628 -0.977266 1 1
343 1 2.69735 4.46886 6.28349 -1.1877 -2.38385 0.889142 1 1
344 1 2.69332 6.25705 4.46654 6.52988 9.9939 -1.46929 1 1
345 1 3.56878 3.5866 3.69286 2.49175 -2.23482 -1.1923 1 1
346 1 3.59922 5.38529 5.39884 11.3349 1.70435 4.3231 1 1
347 1 5.3659 3.53875 5.40034 -5.56751 0.691911 -0.95905 1 1
348 1 5.33115 5.33346 3.59506 0.430855 -3.06088 -3.64212 1 1
349 1 4.48428 4.45578 4.54054 2.45657 1.07799 2.87053 1 1
350 1 4.48311 6.23723 6.30123 -2.04501 6.77363 1.93138 1 1
351 1 6.2784 4.46074 6.29241 1.31358 6.77453 -4.47139 1 1
352 1 6.2647 6.22729 4.47689 4.45268 -7.62244 1.72271 1 1
353 1 7.10147 3.56768 3.59275 -0.87373 4.04845 5.10237 1 1
354 1 7.10684 5.33586 5.37334 1.0394 5.74282 -1.97996 1 1
355 1 8.93233 3.54361 5.36177 0.709481 2.55502 4.39345 1 1
356 1 8.91772 5.35497 3.53233 -11.4501 3.43359 8.43501 1 1
357 1 8.07039 4.45245 4.4521 3.77173 6.31265 2.69933 1 1
358 1 8.03105 6.21339 6.27038 4.46396 -0.548537 6.5872 1 1
359 1 9.77944 4.46436 6.27787 3.56597 -1.31468 10.7569 1 1
360 1 9.7863 6.23374 4.48751 3.5572 -0.769521 0.533576 1 1
361 1 10.6978 3.57201 3.59057 13.9938 -0.303063 1.7574 1 1
362 1 10.6245 5.33965 5.36328 0.422886 6.40841 0.704542 1 1
363 1 12.461 3.55166 5.40986 -4.01648 -3.88638 4.35033 1 1
364 1 12.4542 5.3055 3.56078 -2.19328 12.8703 -3.38478 1 1
365 1 11.569 4.43703 4.521 -1.35734 -2.77292 2.06079 1 1
366 1 11.5744 6.20402 6.27269 -7.80104 -1.8707 -1.73902 1 1
367 1 13.3638 4.45537 6.27392 3.75415 1.53273 1.3857 1 1
368 1 13.3591 6.26726 4.47101 0.985407 4.14538 8.6531 1 1
369 1 14.2305 3.56 3.60215 -11.8576 -0.137587 -2.23396 1 1
370 1 14.2827 5.37135 5.40846 -7.08872 -2.14756 -3.16352 1 1
371 1 16.0457 3.5508 5.4166 2.23615 5.75135 5.82036 1 1
372 1 16.0346 5.31141 3.59256 -10.8752 1.96478 1.35814 1 1
373 1 15.181 4.43972 4.50631 -0.131444 -7.10871 2.73059 1 1
374 1 15.1397 6.27252 6.32767 1.30225 3.10275 6.04642 1 1
375 1 16.9525 4.44924 6.30013 -3.56684 2.91304 6.60185 1 1
376 1 16.9201 6.17897 4.45909 2.81877 -1.07298 3.10194 1 1
377 1 17.8451 3.54296 3.62626 -3.10999 0.598991 -8.6671 1 1
378 1 17.8292 5.36235 5.34542 -3.28768 5.4187 0.899878 1 1
379 1 19.609 3.54478 5.34208 -4.46714 -7.80037 -5.34855 1 1
380 1 19.6826 5.32339 3.55844 5.61343 5.88613 3.82913 1 1
381 1 18.7253 4.45839 4.49238 3.93633 1.14677 -3.4569 1 1
382 1 18.7114 6.2335 6.22167 -1.22292 -4.05616 -2.27955 1 1
383 1 20.5012 4.42107 6.31017 1.49163 -3.76602 6.96626 1 1
384 1 20.5027 6.20707 4.4619 6.08599 -1.14854 -0.138463 1 1
385 1 0.0153343 7.11674 3.56289 8.35264 6.02001 8.65448 1 1
386 1 21.3489 8.93465 5.36854 -1.60337 0.268527 4.78635 1 1
387 1 1.79433 7.13337 5.35618 -0.36752 -5.08898 -1.49136 1 1
388 1 1.77523 8.89833 3.55194 8.58197 2.86132 5.92515 1 1
389 1 0.869601 8.01862 4.4749 4.91782 5.6349 0.345146 1 1
390 1 0.887922 9.81637 6.28848 -1.56877 -7.49588 -2.11883 1 1
391 1 2.69 8.00522 6.2719 7.20843 1.84959 0.504962 1 1
392 1 2.66106 9.82223 4.46638 -4.46017 -3.67657 1.10063 1 1
393 1 3.5598 7.1198 3.53758 4.50984 7.6649 9.06057 1 1
394 1 3.58308 8.91381 5.38024 -1.92238 8.24459 4.31264 1 1
395 1 5.32074 7.13923 5.36121 1.25531 4.09435 0.187588 1 1
396 1 5.34467 8.91861 3.58111 1.82134 0.140664 -2.60546 1 1
397 1 4.47187 8.04071 4.44507 5.74688 -4.10078 -1.4462 1 1
398 1 4.46825 9.77075 6.26768 9.75248 -2.54532 -4.62911 1 1
399 1 6.23385 8.01959 6.25106 0.486096 1.7386 -0.092043 1 1
400 1 6.21803 9.75313 4.45 8.21272 4.29975 -3.69936 1 1
401 1 7.14265 7.1041 3.61953 2.80604 -5.58239 -4.07454 1 1
402 1 7.18035 8.89472 5.35874 -4.63459 -1.71743 2.91393 1 1
403 1 8.89492 7.12702 5.39074 -6.31454 -0.124194 -11.7677 1 1
404 1 8.91595 8.91798 3.56096 -0.198986 2.80826 4.39876 1 1
405 1 8.03337 8.02466 4.4749 -0.619808 4.45098 2.70214 1 1
406 1 8.02334 9.78603 6.23037 4.63857 5.57373 3.28069 1 1
407 1 9.79117 8.01448 6.30598 -0.349591 -2.26021 -6.71424 1 1
408 1 9.82124 9.81686 4.45565 1.79072 -0.648671 7.35608 1 1
409 1 10.6022 7.1529 3.5723 5.02203 5.08932 3.60454 1 1
410 1 10.7021 8.9015 5.35451 3.68755 -6.02234 1.44569 1 1
411 1 12.4893 7.13623 5.36135 -0.68415 3.39899 2.52137 1 1
412 1 12.4777 8.88344 3.57856 2.91179 9.57208 -3.60626 1 1
413 1 11.5482 8.01354 4.45366 0.34513 1.6136 -2.22532 1 1
414 1 11.5647 9.78287 6.27957 -2.65093 3.49093 -1.55261 1 1
415 1 13.3806 7.9832 6.26497 -1.24614 -2.71278 6.00325 1 1
416 1 13.3544 9.75649 4.48308 -5.11537 -2.78263 -0.515502 1 1
417 1 14.2706 7.1384 3.58934 -3.89197 -3.68055 4.29616 1 1
418 1 14.2649 8.91243 5.33976 -0.955604 0.388896 2.18289 1 1
419 1 16.0326 7.16462 5.41942 -5.75529 -4.47292 2.33629 1 1
420 1 16.0175 8.93302 3.61812 -3.92357 -1.6293 4.93088 1 1
421 1 15.1756 8.02536 4.50642 1.68967 -3.68613 -0.138586 1 1
422 1 15.1786 9.80137 6.25795 -0.528742 3.49059 2.67933 1 1
423 1 16.9375 8.04353 6.30138 2.88505 -0.877657 -6.2698 1 1
424 1 16.9527 9.80398 4.50345 6.68105 0.0827111 4.19946 1 1
425 1 17.8454 7.05624 3.57564 2.02626 -11.1124 -1.51023 1 1
426 1 17.8265 8.88332 5.4093 -0.323854 5.20723 -9.90543 1 1
427 1 19.6093 7.14841 5.37012 7.62263 9.17485 6.48718 1 1
428 1 19.5813 8.93257 3.54473 -3.09891 2.71761 -3.17978 1 1
429 1 18.703 8.02707 4.4773 -1.95604 -6.89161 4.96303 1 1
430 1 18.6952 9.83694 6.29017 -0.431087 -3.00442 -1.59282 1 1
431 1 20.496 8.0362 6.2893 -0.28251 -1.2632 2.73742 1 1
432 1 20.4708 9.81923 4.46278 2.80429 -0.510736 1.61897 1 1
433 1 21.3946 10.7267 3.58273 1.62579 -0.527715 -5.24073 1 1
434 1 21.388 12.4387 5.37918 0.0514508 -0.196361 -4.84443 1 1
435 1 1.76048 10.707 5.37879 6.38693 1.88824 -8.76192 1 1
436 1 1.78862 12.5135 3.60515 -2.75249 -0.198748 -0.618481 1 1
437 1 0.889909 11.615 4.49985 -0.979732 -5.42564 -3.05173 1 1
438 1 0.887916 13.3255 6.28442 -2.85151 10.8361 3.49784 1 1
439 1 2.73248 11.5534 6.26512 -5.51948 -6.34061 -9.93098 1 1
440 1 2.6716 13.3786 4.46176 4.76097 -13.2617 -3.14866 1 1
441 1 3.54917 10.6704 3.54884 2.97245 2.41852 7.68433 1 1
442 1 3.61593 12.4783 5.33942 11.8875 -1.17849 2.30426 1 1
443 1 5.37158 10.65 5.39257 -1.44461 4.28089 -2.1428 1 1
444 1 5.36342 12.4665 3.56352 -1.16574 -4.14749 2.75201 1 1
445 1 4.45145 11.5712 4.43603 1.66484 0.713281 0.332398 1 1
446 1 4.45876 13.3318 6.25205 -0.486645 6.1944 -1.57408 1 1
447 1 6.28898 11.555 6.29864 8.71773 -1.64313 -1.45768 1 1
448 1 6.24573 13.3726 4.45386 -1.64004 -3.57804 1.82727 1 1
449 1 7.14011 10.6495 3.54059 -2.91559 5.93983 7.07245 1 1
450 1 7.12843 12.4806 5.34271 -4.23683 9.37601 0.50904 1 1
451 1 8.89715 10.7027 5.35591 -0.338117 -6.02302 -0.50516 1 1
452 1 8.92014 12.4681 3.52477 -0.329044 -2.44652 -0.456981 1 1
453 1 8.02485 11.602 4.46753 -0.533213 -1.27101 6.28978 1 1
454 1 8.04731 13.3673 6.26536 -4.55065 0.387421 -1.88749 1 1
455 1 9.77535 11.6074 6.25582 1.37438 2.0127 4.46394 1 1
456 1 9.81507 13.3453 4.40951 2.49461 -3.5392 5.86359 1 1
457 1 10.7131 10.7154 3.56779 -1.65093 7.40083 4.22064 1 1
458 1 10.6844 12.4731 5.36752 1.77163 -3.4266 0.885797 1 1
459 1 12.5051 10.6715 5.38604 -1.13893 1.44987 3.27049 1 1
460 1 12.495 12.4225 3.55931 -2.54853 -6.56758 -1.09789 1 1
461 1 11.5851 11.5541 4.50796 0.811284 7.51969 -1.71333 1 1
462 1 11.5347 13.376 6.2575 5.12904 3.39981 -2.86043 1 1
463 1 13.3563 11.6188 6.29603 -4.24672 3.34939 1.89188 1 1
464 1 13.3679 13.3277 4.46694 6.07919 -2.46752 9.29877 1 1
465 1 14.221 10.6575 3.55902 7.85279 -2.37323 -5.65903 1 1
466 1 14.2932 12.4823 5.38754 7.51501 -1.98315 4.36119 1 1
467 1 16.0965 10.6735 5.36123 -0.360686 -1.47463 3.29078 1 1
468 1 16.075 12.4866 3.57296 4.18752 5.77588 -7.10935 1 1
469 1 15.1745 11.5798 4.45112 6.54174 0.824085 -0.404463 1 1
470 1 15.1173 13.3618 6.31395 5.56817 -2.38518 -2.63829 1 1
471 1 16.9406 11.5815 6.2648 3.41496 -4.01156 1.41725 1 1
472 1 16.9259 13.3824 4.53653 -11.5381 0.0513832 2.88853 1 1
473 1 17.8507 10.6767 3.55861 -3.33447 4.03929 -2.89139 1 1
474 1 17.8154 12.4857 5.43453 9.49804 3.41693 0.877661 1 1
475 1 19.5856 10.7389 5.36992 -0.486861 3.1172 -6.56736 1 1
476 1 19.5568 12.4769 3.55186 -1.45271 -1.18202 3.27855 1 1
477 1 18.6928 11.6354 4.46791 -2.48625 5.49453 7.77688 1 1
478 1 18.7065 13.4109 6.29442 3.92915 -5.16576 1.1934 1 1
479 1 20.4864 11.6229 6.29179 -5.42323 -8.45058 -3.50404 1 1
480 1 20.4489 13.3681 4.47101 -5.87288 -2.4098 1.59816 1 1
481 1 21.3689 14.2748 3.58155 3.67414 4.02024 -1.34567 1 1
482 1 0.0185828 16.0225 5.38918 -0.527509 -5.51999 6.60765 1 1
483 1 1.82864 14.224 5.37737 2.25251 -1.14868 1.97874 1 1
484 1 1.77596 16.0022 3.58895 10.2231 7.66461 -1.72253 1 1
485 1 0.879581 15.1134 4.50737 -3.77385 -2.6591 8.36812 1 1
486 1 0.932216 16.9183 6.27068 1.30498 2.92166 5.20242 1 1
487 1 2.68231 15.1484 6.26476 7.60681 1.60346 5.31171 1 1
488 1 2.65795 16.9533 4.48059 -6.23186 0.477034 0.708277 1 1
489 1 3.55924 14.2654 3.55748 -1.47 2.17445 -4.72512 1 1
490 1 3.54701 16.0377 5.37749 7.37401 4.47635 0.224448 1 1
491 1 5.33184 14.2437 5.36015 1.83199 9.97197 5.02851 1 1
492 1 5.3975 16.0009 3.54404 -6.79638 -0.0547618 -11.0553 1 1
493 1 4.47825 15.1376 4.46227 -2.39362 4.30752 1.84279 1 1
494 1 4.44852 16.9002 6.24232 -0.992833 0.0641995 -0.0512994 1 1
495 1 6.23132 15.1037 6.23179 -3.18897 2.17272 -4.65198 1 1
496 1 6.26017 16.8824 4.46224 4.36069 8.56182 0.79967 1 1
497 1 7.16382 14.2552 3.59049 3.84427 4.29064 -2.27446 1 1
498 1 7.13629 16.0065 5.35663 -0.837756 6.70988 2.29615 1 1
499 1 8.96433 14.2629 5.35856 1.78395 -4.11595 1.58736 1 1
500 1 8.92363 16.042 3.58769 0.733896 -4.99818 -0.397559 1 1
501 1 8.03915 15.1185 4.44798 1.78975 4.98956 -5.53681 1 1
502 1 8.05451 16.9327 6.25399 -0.296864 -5.81534 -1.73759 1 1
503 1 9.78064 15.1857 6.26369 -7.31687 -3.89379 0.251552 1 1
504 1 9.83145 16.9967 4.4513 -6.35673 3.48575 -4.10849 1 1
505 1 10.7369 14.2694 3.52978 7.308 1.53379 0.879973 1 1
506 1 10.7301 16.0526 5.39401 -3.62991 -4.07457 -5.66747 1 1
507 1 12.4627 14.2495 5.37824 4.16758 0.936851 3.47658 1 1
508 1 12.4983 16.0409 3.57574 4.46633 0.502127 -3.01988 1 1
509 1 11.5803 15.1495 4.46525 -4.47673 -2.57837 2.66265 1 1
510 1 11.5955 16.9368 6.29845 -7.66202 1.03745 3.06742 1 1
511 1 13.3583 15.1509 6.27183 -0.98874 -2.17272 1.05731 1 1
512 1 13.3678 16.9171 4.46972 6.65054 1.00978 1.00439 1 1
513 1 14.2873 14.2536 3.57736 -1.27864 0.450224 -13.1202 1 1
514 1 14.2111 15.9986 5.37002 0.957212 3.8558 0.329027 1 1
515 1 16.028 14.2316 5.40386 2.14949 4.3499 1.34951 1 1
516 1 16.0276 16.0344 3.63765 -2.09559 8.89329 -12.4372 1 1
517 1 15.1057 15.1527 4.49223 9.74306 1.44114 -6.01544 1 1
518 1 15.1213 16.9108 6.27775 10.3565 -3.64122 8.85693 1 1
519 1 16.9122 15.1283 6.29485 -6.71033 1.43802 3.3592 1 1
520 1 16.965 16.8842 4.48387 5.20605 5.95932 4.95422 1 1
521 1 17.8361 14.2425 3.58025 -2.71996 4.76968 2.47077 1 1
522 1 17.8365 16.0544 5.39342 -5.24745 -2.03219 2.3553 1 1
523 1 19.6185 14.302 5.44427 1.10363 -6.96806 3.06494 1 1
524 1 19.6177 16.0636 3.56111 13.7398 2.77157 5.45247 1 1
525 1 18.7258 15.1637 4.48836 -3.40667 -2.99534 2.40118 1 1
526 1 18.7258 16.9811 6.29484 -2.5264 -3.34651 -1.61528 1 1
527 1 20.5119 15.1884 6.32154 -6.1532 2.70552 8.27362 1 1
528 1 20.5149 16.9474 4.46207 1.0794 11.0846 2.95499 1 1
529 1 0.0287918 17.8537 3.55741 7.85584 -1.80526 2.66928 1 1
530 1 21.3352 19.612 5.3679 9.34406 4.98052 -7.63588 1 1
531 1 1.79022 17.8789 5.39657 2.94221 -6.64908 2.55123 1 1
532 1 1.79795 19.6299 3.57358 6.64131 -2.49188 0.302334 1 1
533 1 0.909131 18.7477 4.47839 -5.92043 2.89157 -7.88613 1 1
534 1 0.837985 20.4853 6.25441 -4.91523 1.69241 8.11065 1 1
535 1 2.68933 18.7396 6.31835 -1.84239 -0.937466 3.33167 1 1
536 1 2.66031 20.5377 4.48193 7.15992 8.14461 3.67568 1 1
537 1 3.54245 17.8452 3.60641 -4.58428 1.33351 -3.00309 1 1
538 1 3.55799 19.6236 5.39865 -4.07083 8.63067 -0.502188 1 1
539 1 5.34357 17.7673 5.3646 4.57499 -0.41061 -2.64486 1 1
540 1 5.34459 19.5862 3.59119 -1.88036 0.366712 -4.68199 1 1
541 1 4.44192 18.687 4.51961 -2.41459 3.68641 -3.94275 1 1
542 1 4.4339 20.4928 6.2788 -3.14838 -1.87968 4.8619 1 1
543 1 6.27823 18.7208 6.24823 0.00267445 0.332949 1.17974 1 1
544 1 6.21079 20.5301 4.49378 5.36741 6.05824 -2.91151 1 1
545 1 7.13721 17.8352 3.55674 7.49345 -4.31348 -2.3067 1 1
546 1 7.16097 19.6145 5.39736 -6.85992 3.74472 -7.25833 1 1
547 1 8.9118 17.8492 5.37489 -2.44129 1.03714 3.07111 1 1
548 1 8.94074 19.6272 3.59145 -7.3028 2.79566 8.33572 1 1
549 1 8.04245 18.7302 4.46285 -4.982 -4.35272 8.45685 1 1
550 1 8.03601 20.5319 6.27228 -9.90029 -5.37857 8.48899 1 1
551 1 9.81298 18.7052 6.26603 -4.01575 7.96205 4.04988 1 1
552 1 9.78886 20.5444 4.48695 2.79009 -0.289912 4.6411 1 1
553 1 10.686 17.8623 3.60699 -1.11693 -4.22023 1.4806 1 1
554 1 10.6666 19.6128 5.37635 -2.79832 -3.3421 -5.3349 1 1
555 1 12.4529 17.8242 5.36422 2.62508 4.7025 4.63269 1 1
556 1 12.4986 19.6241 3.59264 8.9849 -5.37098 5.21689 1 1