ITEM: TIMESTEP
1150
ITEM: NUMBER OF ATOMS
2952
ITEM: BOX BOUNDS pp pp mm
0.0000000000000000e+00 2.1394294200000001e+01
0.0000000000000000e+00 2.1394294200000001e+01
-4.4571446250000002e-01 5.3485735500000004e+01
ITEM: ATOMS id type x y z vx vy vz v_is_diamond c_structure_type
1 1 0 0 0 0 0 0 1 3
2 1 1.78286 1.78286 0 0 0 0 1 3
3 1 0.891429 0.891429 0.891429 0 0 0 1 2
4 1 0.889973 2.66877 2.6799 -2.89443 6.53006 -6.00502 1 1
5 1 2.7026 0.885726 2.68749 -4.7123 5.82653 0.625417 1 1
6 1 2.67429 2.67429 0.891429 0 0 0 1 2
7 1 21.3573 1.80433 1.72486 -2.9451 -3.68743 4.01299 1 1
8 1 1.8063 0.0149671 1.77604 3.47311 -0.852824 2.51185 1 1
9 1 1.78157 3.57723 1.79152 1.21871 -2.22101 7.00599 1 1
10 1 3.55328 1.79242 1.77858 -2.65925 -6.14835 -3.59478 1 1
11 1 3.56572 0 0 0 0 0 1 3
12 1 5.34857 1.78286 0 0 0 0 1 3
13 1 4.45714 0.891429 0.891429 0 0 0 1 2
14 1 4.47475 2.65473 2.65062 3.82346 -9.66855 5.8838 1 1
15 1 6.25245 0.903975 2.68747 7.5539 -0.571637 -2.43132 1 1
16 1 6.24 2.67429 0.891429 0 0 0 1 2
17 1 7.12806 1.79338 1.7784 4.97891 -3.40132 9.84903 1 1
18 1 7.13143 0 0 0 0 0 1 3
19 1 8.02286 0.891429 0.891429 0 0 0 1 2
20 1 8.04457 2.6569 2.6778 -2.30362 -2.75109 -1.03648 1 1
21 1 8.91429 1.78286 0 0 0 0 1 3
22 1 9.8452 0.917041 2.70737 -5.65218 1.17624 6.44095 1 1
23 1 9.80572 2.67429 0.891429 0 0 0 1 2
24 1 8.96015 0.00207722 1.81799 0.402994 -2.74133 7.581 1 1
25 1 10.7119 1.84551 1.8191 5.3928 2.50862 5.0683 1 1
26 1 10.6971 0 0 0 0 0 1 3
27 1 12.48 1.78286 0 0 0 0 1 3
28 1 11.5886 0.891429 0.891429 0 0 0 1 2
29 1 11.6088 2.70418 2.68935 -1.52299 -1.29523 0.0363717 1 1
30 1 13.3634 0.890072 2.64185 5.07747 0.346872 -1.48222 1 1
31 1 13.3714 2.67429 0.891429 0 0 0 1 2
32 1 14.2648 1.79857 1.81686 -2.48281 0.57667 -0.350953 1 1
33 1 14.2629 0 0 0 0 0 1 3
34 1 16.0457 1.78286 0 0 0 0 1 3
35 1 15.1543 0.891429 0.891429 0 0 0 1 2
36 1 15.1601 2.69355 2.69501 7.03795 -1.60463 -1.91475 1 1
37 1 16.9371 0.928759 2.62533 -7.61937 4.53755 -2.44095 1 1
38 1 16.9371 2.67429 0.891429 0 0 0 1 2
39 1 16.0337 21.3926 1.79263 -0.733806 -3.88862 -14.304 1 1
40 1 17.8455 1.78036 1.80336 3.35883 0.332514 2.06861 1 1
41 1 17.8286 0 0 0 0 0 1 3
42 1 19.6114 1.78286 0 0 0 0 1 3
43 1 18.72 0.891429 0.891429 0 0 0 1 2
44 1 18.7412 2.65291 2.6699 -2.4986 8.02501 -2.32642 1 1
45 1 20.5008 0.840615 2.65445 -1.06044 -3.58525 3.21219 1 1
46 1 20.5029 2.67429 0.891429 0 0 0 1 2
47 1 0 3.56572 0 0 0 0 1 3
48 1 1.78286 5.34857 0 0 0 0 1 3
49 1 0.891429 4.45714 0.891429 0 0 0 1 2
50 1 0.891936 6.2498 2.67268 1.15578 -3.05949 2.20033 1 1
51 1 2.69305 4.46204 2.63592 -1.01989 -6.46141 -2.98491 1 1
52 1 2.67429 6.24 0.891429 0 0 0 1 2
53 1 3.56061 5.35918 1.75829 -5.09248 2.28012 -0.408598 1 1
54 1 5.34929 3.56596 1.80555 -4.0802 9.4491 -8.79622 1 1
55 1 3.56572 3.56572 0 0 0 0 1 3
56 1 5.34857 5.34857 0 0 0 0 1 3
57 1 4.45714 4.45714 0.891429 0 0 0 1 2
58 1 4.41019 6.24456 2.69304 0.401726 6.77667 -1.58295 1 1
59 1 6.23804 4.45873 2.70514 6.09118 1.47839 -1.97946 1 1
60 1 6.24 6.24 0.891429 0 0 0 1 2
61 1 5.30662 7.15377 1.78146 -1.97398 -3.05435 6.04837 1 1
62 1 7.14234 5.38524 1.79859 -5.43295 4.43881 2.03983 1 1
63 1 7.13143 3.56572 0 0 0 0 1 3
64 1 8.92122 3.55405 1.76966 4.1186 -0.710908 -4.63073 1 1
65 1 8.02286 4.45714 0.891429 0 0 0 1 2
66 1 8.01154 6.24773 2.66544 -3.92903 3.35594 -5.98802 1 1
67 1 8.91429 5.34857 0 0 0 0 1 3
68 1 9.83471 4.46722 2.64277 2.77891 -0.0133372 0.624515 1 1
69 1 9.80572 6.24 0.891429 0 0 0 1 2
70 1 10.7377 5.36085 1.73308 2.81475 3.93103 5.07872 1 1
71 1 12.5216 3.54757 1.76644 -0.377036 -4.69311 -1.79701 1 1
72 1 10.6971 3.56572 0 0 0 0 1 3
73 1 12.48 5.34857 0 0 0 0 1 3
74 1 11.5886 4.45714 0.891429 0 0 0 1 2
75 1 11.664 6.19402 2.65874 1.09887 6.47217 -3.55028 1 1
76 1 13.4213 4.4845 2.67472 1.75536 -1.30356 -4.16513 1 1
77 1 13.3714 6.24 0.891429 0 0 0 1 2
78 1 14.2823 5.31553 1.80231 -1.51186 4.50323 -4.87316 1 1
79 1 16.0474 3.58185 1.77646 1.21824 3.78736 5.08971 1 1
80 1 14.2629 3.56572 0 0 0 0 1 3
81 1 16.0457 5.34857 0 0 0 0 1 3
82 1 15.1543 4.45714 0.891429 0 0 0 1 2
83 1 15.1742 6.23221 2.73594 5.7459 -0.82978 0.147265 1 1
84 1 16.9242 4.47157 2.68408 6.46523 9.82634 -2.21147 1 1
85 1 16.9371 6.24 0.891429 0 0 0 1 2
86 1 17.8594 5.34085 1.78342 8.92699 -7.49923 3.57811 1 1
87 1 19.6269 3.58842 1.78749 -4.36906 -3.0947 -0.499155 1 1
88 1 0.0193734 5.36948 1.82236 -2.4393 -2.09668 -2.08741 1 1
89 1 17.8286 3.56572 0 0 0 0 1 3
90 1 19.6114 5.34857 0 0 0 0 1 3
91 1 18.72 4.45714 0.891429 0 0 0 1 2
92 1 18.7605 6.17934 2.67011 2.44916 0.537013 -5.96308 1 1
93 1 20.5328 4.46446 2.65373 4.67771 -8.09978 6.86498 1 1
94 1 20.5029 6.24 0.891429 0 0 0 1 2
95 1 19.6129 7.12927 1.78092 7.66385 -6.05377 -6.25671 1 1
96 1 1.81678 7.13221 1.77561 4.48271 -0.858717 0.683831 1 1
97 1 0 7.13143 0 0 0 0 1 3
98 1 0.891429 8.02286 0.891429 0 0 0 1 2
99 1 2.684 8.00848 2.72673 7.60104 0.306639 6.43941 1 1
100 1 1.78286 8.91429 0 0 0 0 1 3
101 1 0.879438 9.79609 2.62388 -0.775453 0.245639 -2.39111 1 1
102 1 2.67429 9.80572 0.891429 0 0 0 1 2
103 1 1.76766 10.6691 1.75263 2.3991 -2.25161 -2.09409 1 1
104 1 3.6133 8.90167 1.81236 0.366351 6.97848 -0.169208 1 1
105 1 3.56572 7.13143 0 0 0 0 1 3
106 1 4.45714 8.02286 0.891429 0 0 0 1 2
107 1 6.21755 8.0376 2.66342 10.8339 -0.899749 -7.82334 1 1
108 1 5.34857 8.91429 0 0 0 0 1 3
109 1 4.48291 9.78772 2.69631 2.86861 6.60254 1.33137 1 1
110 1 6.24 9.80572 0.891429 0 0 0 1 2
111 1 7.10113 8.93475 1.75299 -4.74295 -1.8648 5.73244 1 1
112 1 8.88749 7.12675 1.79145 -3.20011 6.93755 -9.15321 1 1
113 1 7.13143 7.13143 0 0 0 0 1 3
114 1 8.02286 8.02286 0.891429 0 0 0 1 2
115 1 9.8127 8.02158 2.71457 6.15761 -8.55857 1.08417 1 1
116 1 7.96875 9.80563 2.67403 -3.24319 1.52965 0.499288 1 1
117 1 8.91429 8.91429 0 0 0 0 1 3
118 1 9.80572 9.80572 0.891429 0 0 0 1 2
119 1 10.713 8.88172 1.79924 1.8018 -3.93756 6.6944 1 1
120 1 12.5073 7.11108 1.8028 3.86231 -0.393666 5.77574 1 1
121 1 10.6971 7.13143 0 0 0 0 1 3
122 1 11.5886 8.02286 0.891429 0 0 0 1 2
123 1 13.4153 7.99718 2.6911 -4.05086 -2.42446 8.0422 1 1
124 1 12.48 8.91429 0 0 0 0 1 3
125 1 11.5797 9.82222 2.66928 2.22826 -1.76882 1.02183 1 1
126 1 13.3714 9.80572 0.891429 0 0 0 1 2
127 1 12.4922 10.6814 1.78922 -3.80666 -2.70085 -2.71993 1 1
128 1 16.0262 7.15931 1.80028 -4.24664 5.74215 6.75615 1 1
129 1 14.2743 8.92181 1.77349 -0.460097 5.21743 -2.7034 1 1
130 1 14.2629 7.13143 0 0 0 0 1 3
131 1 15.1543 8.02286 0.891429 0 0 0 1 2
132 1 16.9776 7.98672 2.68383 3.49564 -1.68055 1.35771 1 1
133 1 16.0457 8.91429 0 0 0 0 1 3
134 1 15.1895 9.8163 2.63 2.83994 -2.52895 0.699722 1 1
135 1 16.9371 9.80572 0.891429 0 0 0 1 2
136 1 16.0103 10.729 1.79512 -4.74962 1.2016 0.247274 1 1
137 1 17.823 8.92728 1.75281 -2.04199 0.866396 -1.23038 1 1
138 1 0.00369705 8.9024 1.76684 -2.39664 4.83714 6.9353 1 1
139 1 17.8286 7.13143 0 0 0 0 1 3
140 1 18.72 8.02286 0.891429 0 0 0 1 2
141 1 20.5236 8.00714 2.68735 -5.63421 0.839677 5.22583 1 1
142 1 19.6114 8.91429 0 0 0 0 1 3
143 1 18.7041 9.81525 2.67345 -8.08254 -6.79386 6.18469 1 1
144 1 20.5029 9.80572 0.891429 0 0 0 1 2
145 1 0 10.6971 0 0 0 0 1 3
146 1 1.78286 12.48 0 0 0 0 1 3
147 1 0.891429 11.5886 0.891429 0 0 0 1 2
148 1 2.64478 11.5461 2.67628 -12.2749 -4.13166 -1.32733 1 1
149 1 0.89798 13.3155 2.67794 -1.32736 -8.51803 3.91557 1 1
150 1 2.67429 13.3714 0.891429 0 0 0 1 2
151 1 21.3478 12.5081 1.78677 2.68521 -2.75236 1.13012 1 1
152 1 5.38161 10.6851 1.77978 6.90192 -2.07646 3.06832 1 1
153 1 3.56922 12.4645 1.76398 -7.45505 3.9628 2.41732 1 1
154 1 3.56572 10.6971 0 0 0 0 1 3
155 1 5.34857 12.48 0 0 0 0 1 3
156 1 4.45714 11.5886 0.891429 0 0 0 1 2
157 1 6.23017 11.5766 2.72233 0.825999 4.36618 -6.61527 1 1
158 1 4.42219 13.3134 2.67249 0.980667 4.03617 4.51448 1 1
159 1 6.24 13.3714 0.891429 0 0 0 1 2
160 1 5.34856 14.2365 1.79133 -0.2975 -2.50682 -5.7942 1 1
161 1 8.89872 10.6715 1.80463 -3.29751 -1.71205 -10.0491 1 1
162 1 7.17802 12.4965 1.77454 2.07712 -1.02859 -0.609585 1 1
163 1 7.13143 10.6971 0 0 0 0 1 3
164 1 8.02286 11.5886 0.891429 0 0 0 1 2
165 1 8.91429 12.48 0 0 0 0 1 3
166 1 9.79239 11.5719 2.68639 2.34262 -0.65311 3.11579 1 1
167 1 8.03443 13.3668 2.65861 -0.946329 -1.68206 -4.93046 1 1
168 1 9.80572 13.3714 0.891429 0 0 0 1 2
169 1 10.6746 12.4818 1.78606 2.44959 0.780208 -6.39126 1 1
170 1 10.6971 10.6971 0 0 0 0 1 3
171 1 12.48 12.48 0 0 0 0 1 3
172 1 11.5886 11.5886 0.891429 0 0 0 1 2
173 1 13.4 11.5744 2.67687 -1.34729 3.38888 6.92197 1 1
174 1 11.5894 13.3718 2.68684 3.48141 -8.2808 -2.05321 1 1
175 1 13.3714 13.3714 0.891429 0 0 0 1 2
176 1 12.488 14.265 1.82633 -4.42446 0.474041 -6.39144 1 1
177 1 14.2792 12.4697 1.81989 0.863568 2.26808 1.23119 1 1
178 1 14.2629 10.6971 0 0 0 0 1 3
179 1 16.0457 12.48 0 0 0 0 1 3
180 1 15.1543 11.5886 0.891429 0 0 0 1 2
181 1 16.9155 11.6139 2.69137 4.99909 1.45445 8.04918 1 1
182 1 15.1667 13.3775 2.67374 -0.747974 7.3005 7.64431 1 1
183 1 16.9371 13.3714 0.891429 0 0 0 1 2
184 1 17.8497 12.4681 1.76241 5.29299 -5.41232 -1.64837 1 1
185 1 19.6074 10.6848 1.77561 3.81521 5.42121 -4.47365 1 1
186 1 17.8286 10.6971 0 0 0 0 1 3
187 1 19.6114 12.48 0 0 0 0 1 3
188 1 18.72 11.5886 0.891429 0 0 0 1 2
189 1 20.4368 11.6079 2.67412 0.0494786 1.29332 6.60425 1 1
190 1 18.7431 13.4066 2.66581 1.2008 4.31965 1.20974 1 1
191 1 20.5029 13.3714 0.891429 0 0 0 1 2
192 1 19.6144 14.2462 1.82963 -5.26973 6.71023 -1.26967 1 1
193 1 1.78198 14.2367 1.75003 6.66315 6.99385 7.64628 1 1
194 1 0 14.2629 0 0 0 0 1 3
195 1 1.78286 16.0457 0 0 0 0 1 3
196 1 0.891429 15.1543 0.891429 0 0 0 1 2
197 1 0.844623 16.9851 2.71568 -7.62976 -1.89467 4.65995 1 1
198 1 2.67338 15.1316 2.67517 1.11002 4.90276 1.07713 1 1
199 1 2.67429 16.9371 0.891429 0 0 0 1 2
200 1 21.3654 16.0646 1.80876 5.51101 9.93484 3.96853 1 1
201 1 3.59492 16.0171 1.81584 6.30823 -1.00095 -4.63773 1 1
202 1 3.56572 14.2629 0 0 0 0 1 3
203 1 5.34857 16.0457 0 0 0 0 1 3
204 1 4.45714 15.1543 0.891429 0 0 0 1 2
205 1 4.4378 16.9489 2.70314 0.813271 -2.38127 -1.1387 1 1
206 1 6.26453 15.2123 2.66027 -6.42456 6.68231 -0.758473 1 1
207 1 6.24 16.9371 0.891429 0 0 0 1 2
208 1 7.13002 16.0688 1.78443 -2.76063 -5.66446 0.793265 1 1
209 1 5.32048 17.8229 1.77725 -3.54077 -1.76997 -7.08719 1 1
210 1 8.93571 14.2507 1.77415 4.40205 -3.16618 -1.25574 1 1
211 1 7.13143 14.2629 0 0 0 0 1 3
212 1 8.02286 15.1543 0.891429 0 0 0 1 2
213 1 8.04258 16.9224 2.72773 -5.59825 1.1929 -7.73144 1 1
214 1 8.91429 16.0457 0 0 0 0 1 3
215 1 9.8453 15.1216 2.65562 -9.26299 0.291446 6.6169 1 1
216 1 9.80572 16.9371 0.891429 0 0 0 1 2
217 1 8.93096 17.8517 1.81943 -10.7007 -8.12132 -7.55885 1 1
218 1 10.6925 16.073 1.75973 -2.92923 1.91581 -3.44405 1 1
219 1 10.6971 14.2629 0 0 0 0 1 3
220 1 12.48 16.0457 0 0 0 0 1 3
221 1 11.5886 15.1543 0.891429 0 0 0 1 2
222 1 11.5862 16.9499 2.71194 -0.867115 -4.31387 -2.19096 1 1
223 1 13.3609 15.1553 2.64884 1.01134 -6.22047 -8.40132 1 1
224 1 13.3714 16.9371 0.891429 0 0 0 1 2
225 1 12.4974 17.8535 1.82839 -0.51309 -9.19481 -0.960494 1 1
226 1 16.0604 14.2679 1.76225 1.97427 0.97522 1.29902 1 1
227 1 14.2718 16.0428 1.82907 1.41437 -1.27495 -1.17906 1 1
228 1 14.2629 14.2629 0 0 0 0 1 3
229 1 16.0457 16.0457 0 0 0 0 1 3
230 1 15.1543 15.1543 0.891429 0 0 0 1 2
231 1 15.1671 16.9445 2.66348 -0.770118 -5.14736 -1.7808 1 1
232 1 16.8919 15.091 2.6554 -0.0632902 -1.36917 1.93894 1 1
233 1 16.9371 16.9371 0.891429 0 0 0 1 2
234 1 17.8179 16.0423 1.7695 -0.722697 -13.5027 -7.35772 1 1
235 1 17.8286 14.2629 0 0 0 0 1 3
236 1 19.6114 16.0457 0 0 0 0 1 3
237 1 18.72 15.1543 0.891429 0 0 0 1 2
238 1 18.7142 16.9288 2.6845 -7.21236 6.60812 -2.74182 1 1
239 1 20.5045 15.1766 2.72553 5.60293 -0.798889 -2.26084 1 1
240 1 20.5029 16.9371 0.891429 0 0 0 1 2
241 1 19.6083 17.8376 1.82982 -0.497932 0.0863808 -8.351 1 1
242 1 1.77681 17.8608 1.78492 -2.08504 0.251163 1.12362 1 1
243 1 0 17.8286 0 0 0 0 1 3
244 1 1.78286 19.6114 0 0 0 0 1 3
245 1 0.891429 18.72 0.891429 0 0 0 1 2
246 1 0.905493 20.5164 2.61954 -8.61009 -0.751863 0.571387 1 1
247 1 2.68565 18.7399 2.62172 1.76414 6.72726 -4.01332 1 1
248 1 2.67429 20.5029 0.891429 0 0 0 1 2
249 1 3.57658 19.6238 1.73752 -6.87186 -3.52964 -2.29261 1 1
250 1 0.00668943 19.6306 1.73783 5.52125 -10.9463 1.74405 1 1
251 1 5.33897 0.0230384 1.81133 0.0671327 -3.15271 2.00794 1 1
252 1 3.56572 17.8286 0 0 0 0 1 3
253 1 5.34857 19.6114 0 0 0 0 1 3
254 1 4.45714 18.72 0.891429 0 0 0 1 2
255 1 4.47226 20.5067 2.6523 12.0836 4.1021 -3.43181 1 1
256 1 6.26345 18.6894 2.65012 4.27076 5.59656 -4.99295 1 1
257 1 6.24 20.5029 0.891429 0 0 0 1 2
258 1 7.13277 19.5778 1.7709 1.62721 -0.542916 -1.90469 1 1
259 1 7.13143 17.8286 0 0 0 0 1 3
260 1 8.02286 18.72 0.891429 0 0 0 1 2
261 1 8.01228 20.4752 2.68677 3.76097 5.60949 -7.06388 1 1
262 1 8.91429 19.6114 0 0 0 0 1 3
263 1 9.80458 18.7204 2.69109 -3.00281 -0.66724 -2.21645 1 1
264 1 9.80572 20.5029 0.891429 0 0 0 1 2
265 1 10.6638 19.6015 1.77535 3.48131 2.22868 -3.25465 1 1
266 1 12.5047 0.0399817 1.76898 -5.42372 0.132073 7.21696 1 1
267 1 10.6971 17.8286 0 0 0 0 1 3
268 1 12.48 19.6114 0 0 0 0 1 3
269 1 11.5886 18.72 0.891429 0 0 0 1 2
270 1 11.6054 20.5251 2.64845 2.37185 -6.27866 -3.07735 1 1
271 1 13.4023 18.7459 2.71236 -2.04219 5.12388 -5.7625 1 1
272 1 13.3714 20.5029 0.891429 0 0 0 1 2
273 1 14.3021 19.6036 1.83042 -7.90645 8.59176 5.84346 1 1
274 1 16.0732 17.7888 1.78105 -8.34366 -1.32957 4.45212 1 1
275 1 14.2629 17.8286 0 0 0 0 1 3
276 1 16.0457 19.6114 0 0 0 0 1 3
277 1 15.1543 18.72 0.891429 0 0 0 1 2
278 1 15.1662 20.4849 2.70114 4.90912 2.15969 -4.08478 1 1
279 1 16.9696 18.6843 2.66868 4.27026 4.07028 -1.93651 1 1
280 1 16.9371 20.5029 0.891429 0 0 0 1 2
281 1 19.5778 21.3709 1.77112 2.81846 -4.48867 -5.92624 1 1
282 1 17.8242 19.5952 1.74726 -1.11534 2.70735 -4.25476 1 1
283 1 17.8286 17.8286 0 0 0 0 1 3
284 1 19.6114 19.6114 0 0 0 0 1 3
285 1 18.72 18.72 0.891429 0 0 0 1 2
286 1 18.7281 20.49 2.644 -3.48286 5.40335 1.86086 1 1
287 1 20.5146 18.7615 2.65855 -1.88305 9.06689 -1.22025 1 1
288 1 20.5029 20.5029 0.891429 0 0 0 1 2
289 1 1.84643 1.77012 3.59348 6.48184 -11.3761 -3.78053 1 1
290 1 0.900103 0.913818 4.48534 4.0015 -7.4198 -2.38155 1 1
291 1 2.68888 2.67359 4.48941 5.76907 9.00112 -1.01944 1 1
292 1 1.79843 0.0521467 5.41397 -1.86719 -0.0490763 -1.87615 1 1
293 1 1.78792 3.55164 5.36942 -5.69075 1.0754 -0.265005 1 1
294 1 21.3875 1.78963 5.36606 -4.8917 -5.90119 -2.30656 1 1
295 1 0.00430228 0.0210755 3.56716 6.06575 -0.666571 -8.99659 1 1
296 1 3.55827 1.81811 5.35195 -6.74733 -4.92542 0.184025 1 1
297 1 5.36264 1.75768 3.54779 -4.74777 4.14897 2.48369 1 1
298 1 4.45043 0.927732 4.4573 -3.58506 -6.84073 -7.92863 1 1
299 1 6.23095 0.884609 6.23061 -11.2906 -7.6102 3.0781 1 1
300 1 6.2239 2.68 4.42437 3.0836 2.09052 -10.5428 1 1
301 1 3.58792 0.00960306 3.57424 1.84354 7.07394 9.14378 1 1
302 1 7.11065 0.0359877 3.56213 -1.48683 1.93998 -0.987097 1 1
303 1 5.34542 21.3794 5.3964 -2.94349 -2.36151 5.83615 1 1
304 1 7.13049 3.53946 3.57005 -2.9231 3.5343 -0.626638 1 1
305 1 7.10577 1.76847 5.31217 -3.78352 1.67525 2.29889 1 1
306 1 8.942 1.81937 3.57991 -5.68114 -1.8849 5.87356 1 1
307 1 8.01892 0.939005 4.46872 -0.776666 -2.40377 -0.319731 1 1
308 1 8.00853 2.6381 6.23889 -1.63219 -1.81176 6.27553 1 1
309 1 9.79189 0.960136 6.23396 8.55721 -6.76838 -4.29065 1 1
310 1 9.83319 2.75359 4.43342 3.55877 -2.16071 5.05209 1 1
311 1 10.7352 1.80576 5.35181 0.829634 -1.18979 0.908067 1 1
312 1 12.517 1.81099 3.56512 -0.650186 6.00583 -2.2396 1 1
313 1 11.6258 0.910186 4.44809 3.90434 -0.655922 -2.47615 1 1
314 1 11.5828 2.67692 6.26755 1.34443 -0.547866 0.176473 1 1
315 1 13.4274 2.71627 4.48363 4.91464 0.421575 -5.89654 1 1
316 1 13.4064 0.947766 6.25982 4.3249 3.48979 -11.9558 1 1
317 1 12.5135 3.58388 5.34237 1.08651 -0.0671482 -11.7632 1 1
318 1 14.2805 1.84264 5.37443 -1.76944 0.156009 0.241258 1 1
319 1 12.5465 0.0633216 5.36312 1.79769 -3.01455 -5.4596 1 1
320 1 14.3174 3.61027 3.61128 -4.7788 -4.30924 -12.3067 1 1
321 1 16.0292 1.80464 3.56251 -7.38212 -1.15186 -10.9332 1 1
322 1 15.1906 0.909171 4.47415 4.64135 4.5857 -8.42333 1 1
323 1 15.2222 2.68113 6.29091 6.11203 4.73481 -3.32349 1 1
324 1 16.9844 2.67031 4.42954 3.053 -0.341222 -7.8837 1 1
325 1 17.8194 1.83128 5.39282 8.04418 -3.4521 -5.79285 1 1
326 1 16.0992 0.00733763 5.39039 8.95919 -2.48862 -4.69301 1 1
327 1 19.6204 1.77133 3.56564 -9.26036 0.166279 6.21384 1 1
328 1 18.7094 0.909758 4.46918 2.68726 2.48106 -14.454 1 1
329 1 20.5166 2.65632 4.4477 0.728993 3.2168 1.57393 1 1
330 1 17.8182 0.0290205 3.58977 9.36897 -1.85538 5.44698 1 1
331 1 19.6084 21.3819 5.31071 -1.6438 -1.38056 1.1491 1 1
332 1 21.3831 3.53235 3.60992 1.51484 0.881439 -3.41918 1 1
333 1 1.78561 5.38068 3.55495 7.38378 4.3633 2.50576 1 1
334 1 0.885505 4.48325 4.44772 0.7834 0.724312 -1.2727 1 1
335 1 2.72123 4.43637 6.26668 0.643242 -2.08359 0.455768 1 1
336 1 2.6301 6.2429 4.48159 1.84163 -6.6347 -4.03443 1 1
337 1 3.57286 3.5639 3.54997 -2.89373 1.97655 7.14901 1 1
338 1 0.0111994 5.31775 5.34281 4.45548 2.29946 -0.816528 1 1
339 1 3.5535 5.36265 5.34909 3.87328 -0.976318 -1.23956 1 1
340 1 5.36193 3.58743 5.34203 0.956933 -2.989 -11.144 1 1
341 1 5.34195 5.36384 3.58885 1.04891 -1.66199 -7.49189 1 1
342 1 4.50729 4.45175 4.422 -6.6052 -0.787344 -4.47625 1 1
343 1 4.51137 6.28171 6.2654 2.83327 -0.721135 -1.29228 1 1
344 1 6.27981 6.2692 4.45877 6.88952 3.22348 -7.32713 1 1
345 1 7.16221 5.36377 5.38837 -14.2017 -4.74335 -3.855 1 1
346 1 5.38644 7.15554 5.39055 -8.57087 2.48879 -0.141993 1 1
347 1 6.24419 4.48753 6.23457 -1.64789 -5.68707 -0.588501 1 1
348 1 8.93981 3.59593 5.34417 -4.41655 -2.49061 4.61702 1 1
349 1 10.6673 3.61497 3.51953 3.64364 -3.82643 2.63908 1 1
350 1 8.90362 5.34426 3.51828 -3.53486 8.54215 -2.99653 1 1
351 1 8.02134 4.44686 4.47988 9.38501 1.68922 2.1785 1 1
352 1 8.03222 6.24762 6.25997 5.31859 -3.33539 -6.72146 1 1
353 1 9.83721 4.47706 6.20011 2.51832 -0.322007 -3.16942 1 1
354 1 9.77739 6.20322 4.43623 3.29286 6.82353 7.14815 1 1
355 1 10.7041 5.32785 5.33801 -2.62637 6.21745 -1.43444 1 1
356 1 12.504 5.32889 3.57634 -5.30567 -9.65573 -3.49312 1 1
357 1 11.6098 4.46739 4.41606 2.78908 -1.87543 0.777209 1 1
358 1 13.3737 6.22508 4.47436 -3.26063 2.58443 0.409444 1 1
359 1 14.2993 5.35396 5.3769 -6.11446 -0.885661 1.26798 1 1
360 1 16.0555 3.55759 5.36549 -7.8279 3.70149 5.80365 1 1
361 1 17.8688 3.5549 3.57254 -6.50768 -1.35294 -1.73398 1 1
362 1 16.0686 5.32456 3.6103 -0.277938 10.1781 1.44785 1 1
363 1 15.1624 4.45461 4.48618 3.82711 -6.23177 0.0665989 1 1
364 1 16.9603 6.21656 4.46459 2.96728 -2.13625 -0.419827 1 1
365 1 17.0218 4.44347 6.2438 1.12792 -6.7473 5.22514 1 1
366 1 16.0944 7.15369 5.3287 -0.214115 2.92411 -5.92063 1 1
367 1 15.1964 6.25317 6.23022 2.63652 2.08513 -5.6382 1 1
368 1 19.6563 3.56778 5.36849 -2.29486 3.6302 -4.89032 1 1
369 1 17.8989 5.35174 5.36659 -2.04462 3.90455 -2.4348 1 1
370 1 19.6032 5.32026 3.5514 10.9138 5.04077 -2.47469 1 1
371 1 18.7213 4.41764 4.4571 -1.78309 -5.54761 1.74118 1 1
372 1 20.5181 4.46634 6.22006 -3.21733 1.4195 1.97469 1 1
373 1 20.5193 6.23918 4.43279 -2.5411 1.18239 1.51092 1 1
374 1 19.6553 7.12227 5.28956 -8.30085 -1.55355 3.39092 1 1
375 1 0.0128668 7.12594 3.53882 5.98604 1.29264 -10.252 1 1
376 1 1.80106 7.17705 5.38365 6.63485 -4.19531 6.12988 1 1
377 1 1.7282 8.92477 3.55448 0.740252 2.55466 2.72619 1 1
378 1 0.869951 8.0031 4.4977 -1.7597 -3.60596 -0.863014 1 1
379 1 2.66868 8.02775 6.28037 0.89324 4.443 -12.7843 1 1
380 1 0.883347 9.81468 6.25755 6.53566 -4.76236 0.310921 1 1
381 1 2.69733 9.81936 4.47163 4.33416 2.91206 -8.41622 1 1
382 1 21.3842 8.92097 5.34317 -9.8629 5.39226 -3.59322 1 1
383 1 1.74639 10.6673 5.37311 0.486852 -1.12708 -0.367727 1 1
384 1 3.53339 7.12618 3.59117 0.0373745 -5.56399 -7.64267 1 1
385 1 7.07794 7.17328 3.53818 -0.438718 -6.12733 -5.48869 1 1
386 1 3.5528 10.6647 3.58368 -5.09579 4.56087 0.661788 1 1
387 1 3.58911 8.91306 5.36323 -1.90399 8.5441 -2.72012 1 1
388 1 5.351 8.89269 3.55462 4.28342 1.12192 4.3191 1 1
389 1 4.46954 8.08154 4.46245 6.72534 1.66595 0.0979017 1 1
390 1 4.44364 9.7887 6.29594 2.71014 -3.5603 -4.3926 1 1
391 1 6.19207 9.78263 4.44989 -0.899978 -0.855854 -1.57868 1 1
392 1 8.88349 7.13032 5.35031 -3.3911 0.590548 -1.7849 1 1
393 1 7.13444 8.92754 5.35464 -0.329465 5.27806 0.42049 1 1
394 1 8.90754 8.93074 3.56553 3.27156 -8.0599 -7.88858 1 1
395 1 7.99229 8.03155 4.40371 0.553129 0.586422 -2.27666 1 1
396 1 9.79486 9.81173 4.46737 -1.46236 -3.89527 1.41348 1 1
397 1 10.6972 8.94244 5.34055 2.88845 3.40948 -6.9 1 1
398 1 10.6828 10.6599 3.56818 -0.885423 -0.515033 0.744335 1 1
399 1 9.78325 8.04076 6.24643 -4.63361 1.62057 -7.08534 1 1
400 1 12.5125 7.15064 5.38683 2.92396 10.6751 -1.49773 1 1
401 1 10.7066 7.09914 3.55877 -7.95165 3.44175 -2.64901 1 1
402 1 12.5091 8.89121 3.56809 3.27255 -0.850247 6.06122 1 1
403 1 11.6204 8.04928 4.47922 -9.51548 3.53278 -1.14417 1 1
404 1 13.3636 9.80586 4.47603 1.25764 -2.46239 0.076158 1 1
405 1 14.2939 7.1628 3.62898 -3.09554 0.383019 -4.27673 1 1
406 1 14.2934 8.9181 5.34418 2.87435 -0.238633 -0.913816 1 1
407 1 17.8537 7.16115 3.60553 -10.2195 2.65302 1.91002 1 1
408 1 16.0571 8.94166 3.5682 -2.67956 0.134217 -0.00807473 1 1
409 1 15.1734 8.0423 4.49493 10.0716 2.60032 4.96736 1 1
410 1 16.9298 9.824 4.48624 -5.41278 2.15942 4.29677 1 1
411 1 16.0815 10.6857 5.39956 -2.71045 0.900338 -10.4029 1 1
412 1 16.9879 8.05529 6.23769 0.0905371 0.459986 -3.41605 1 1
413 1 17.8492 8.9291 5.37264 0.652388 -10.1878 3.6545 1 1
414 1 19.6279 8.92937 3.57573 1.54054 8.02983 -2.88947 1 1
415 1 18.7549 8.07559 4.46105 3.24628 -1.24788 -0.265049 1 1
416 1 18.7539 9.83138 6.28452 4.95571 -1.58235 3.73749 1 1
417 1 20.4675 9.83502 4.45769 -0.298 1.91399 4.20775 1 1
418 1 20.539 8.02781 6.26324 -1.82954 -4.65355 3.08223 1 1
419 1 19.6156 10.7424 5.38582 -1.95819 7.23372 -6.84211 1 1
420 1 21.3704 10.7399 3.53802 4.52374 3.45216 3.27731 1 1
421 1 1.79017 12.4087 3.55139 -1.11884 3.51576 -5.33962 1 1
422 1 0.869665 11.5843 4.47641 -3.08106 -3.2929 -3.76399 1 1
423 1 2.67158 11.5698 6.2962 6.86881 -3.27401 -5.77913 1 1
424 1 0.868698 13.3211 6.23856 -3.90442 4.44422 5.97401 1 1
425 1 2.6163 13.3815 4.44227 -11.3644 4.53498 1.77993 1 1
426 1 21.3769 12.4749 5.38336 -1.60636 -4.10705 -6.44241 1 1
427 1 5.33818 10.6669 5.38258 -0.0347521 5.29774 3.18588 1 1
428 1 3.53241 14.2632 3.6347 -2.73129 -2.52291 2.13396 1 1
429 1 3.4991 12.5054 5.33963 7.56045 3.36917 -5.65194 1 1
430 1 5.29298 12.4586 3.58565 -0.825645 4.45547 6.75318 1 1
431 1 4.40755 11.5464 4.52124 -0.426065 5.59842 -5.99623 1 1
432 1 6.2356 13.3694 4.44003 2.30328 0.334099 -5.45093 1 1
433 1 7.12546 14.2817 3.56395 4.28087 -1.92417 5.89816 1 1
434 1 6.2275 11.5872 6.21809 6.3372 -2.90369 -7.33094 1 1
435 1 7.13872 10.6848 3.5901 -1.75438 -12.0019 -1.39437 1 1
436 1 7.12853 12.4521 5.3744 -6.96045 -4.72227 0.0480218 1 1
437 1 8.91672 10.6941 5.36576 -9.46364 -4.95754 -8.85675 1 1
438 1 8.91689 12.4818 3.59882 -10.1445 10.6676 2.39376 1 1
439 1 8.03397 11.5935 4.49886 3.56276 2.90731 7.0029 1 1
440 1 9.8053 11.578 6.24641 -3.73176 -2.94198 -14.632 1 1
441 1 7.97774 13.3357 6.27615 -1.61098 -1.36986 2.28161 1 1
442 1 9.82934 13.3965 4.45214 -3.5389 -6.69312 -0.0426832 1 1
443 1 10.7206 14.2931 3.59724 5.7861 -9.17868 -1.3238 1 1
444 1 12.4458 10.7108 5.32399 4.69292 -2.92675 -6.64853 1 1
445 1 10.7539 12.5303 5.3712 8.99657 -10.9202 2.76164 1 1
446 1 12.4849 12.4582 3.54413 -3.74585 -4.48354 -0.971045 1 1
447 1 11.5578 11.5693 4.43747 8.58392 -4.35829 8.21327 1 1
448 1 13.3745 11.5648 6.26368 4.34573 -3.43405 1.10531 1 1
449 1 11.6077 13.3757 6.27667 -4.17291 -9.02687 -2.8352 1 1
450 1 13.3415 13.3623 4.44471 -4.26064 -2.96071 1.53001 1 1
451 1 14.2569 10.6557 3.58092 -2.55527 1.92502 0.630222 1 1
452 1 14.2608 12.4797 5.36888 13.4083 -0.208207 1.7371 1 1
453 1 15.9956 12.4553 3.57506 -7.33092 1.31738 1.23116 1 1
454 1 15.1459 11.5652 4.49258 -4.46248 1.61561 0.654799 1 1
455 1 16.9361 11.5735 6.29563 -5.03955 -3.93304 -4.49683 1 1
456 1 16.9304 13.3779 4.43394 -4.2349 7.16925 1.57496 1 1
457 1 17.8278 12.4831 5.3763 0.258776 2.78373 0.892178 1 1
458 1 15.1442 13.3845 6.2482 -7.04932 1.71653 0.686483 1 1
459 1 17.8559 10.6977 3.60403 -2.74107 0.999967 0.356428 1 1
460 1 19.6158 12.5158 3.56571 -5.33185 3.61436 -2.65505 1 1
461 1 18.7513 11.6245 4.44459 -0.329242 -0.916595 -2.44386 1 1
462 1 18.712 13.4133 6.2507 -6.17524 2.84459 -10.0547 1 1
463 1 20.5071 13.4195 4.4688 -8.35757 0.665296 3.26014 1 1
464 1 20.495 11.6054 6.273 -8.16459 0.776935 -1.74417 1 1
465 1 1.79696 14.2982 5.38059 11.1355 0.56999 0.493776 1 1
466 1 1.76262 16.093 3.54447 5.77913 -9.70924 -3.63564 1 1
467 1 0.916039 15.1913 4.40309 9.46739 0.519 -1.46147 1 1
468 1 2.66315 15.2348 6.26924 -5.19273 -2.47043 -4.35333 1 1
469 1 2.71064 16.9759 4.4835 0.553704 2.84228 -6.92771 1 1
470 1 21.3835 16.1093 5.32084 5.02791 -3.02801 0.385756 1 1
471 1 0.0645876 14.2362 3.56941 0.0481317 -1.82711 2.7759 1 1
472 1 1.76595 17.8301 5.33922 6.94621 4.48126 -3.29065 1 1
473 1 5.40069 14.2458 5.3667 2.60281 -0.411176 -3.52849 1 1
474 1 3.59165 16.0877 5.38007 2.12145 0.0767079 4.48895 1 1
475 1 5.38522 16.0748 3.61695 5.19557 -1.30244 -0.0291743 1 1
476 1 4.47331 15.1634 4.49482 2.19597 -2.88535 -0.517565 1 1
477 1 4.49328 16.9489 6.26148 8.83719 -1.39499 -3.37713 1 1
478 1 6.29722 15.1678 6.31458 3.86021 1.49719 -6.38442 1 1
479 1 6.27473 16.9374 4.46859 -7.65396 -6.56107 1.63265 1 1
480 1 7.19013 16.0621 5.37224 4.54866 9.60323 -2.24778 1 1
481 1 8.89605 14.241 5.34674 4.58443 2.77052 1.96741 1 1
482 1 8.97611 16.0133 3.51522 -4.12277 1.74705 1.27722 1 1
483 1 8.03227 15.1605 4.46252 -0.499269 2.47999 -0.761538 1 1
484 1 8.07476 16.9572 6.26371 -4.45572 4.58515 -3.97293 1 1
485 1 9.82391 15.1336 6.26241 -1.18325 -0.888329 -4.26758 1 1
486 1 9.86417 16.913 4.46816 1.60474 4.73627 -5.65067 1 1
487 1 10.7182 16.0248 5.43086 11.9359 -4.88627 2.3576 1 1
488 1 8.95332 17.8561 5.39762 -4.28796 4.17625 -5.80122 1 1
489 1 10.7008 17.8514 3.55947 0.70652 -8.57201 4.93419 1 1
490 1 12.4772 14.2795 5.36775 -2.77152 -0.903597 3.74748 1 1
491 1 12.4702 16.0077 3.61542 1.2766 1.36933 5.67064 1 1
492 1 11.6022 15.1634 4.50998 3.55739 -3.95721 -0.486122 1 1
493 1 11.6278 16.9442 6.26565 0.718395 3.60617 6.96725 1 1
494 1 13.3822 16.9343 4.49572 3.39111 -2.37699 -1.22772 1 1
495 1 13.3401 15.1879 6.25205 3.93212 -1.73054 1.78815 1 1
496 1 12.4712 17.8428 5.37122 -3.73805 8.98572 -6.46614 1 1
497 1 14.268 14.2522 3.55926 1.15973 8.8608 2.68646 1 1
498 1 16.0152 14.2481 5.33535 0.216714 6.65864 1.52399 1 1
499 1 17.801 14.2559 3.55957 -0.772169 0.582019 -14.4748 1 1
500 1 14.3043 16.0454 5.42332 -0.512279 -5.89434 -7.54709 1 1
501 1 14.2671 17.8014 3.56666 -4.02988 -1.42968 -11.7044 1 1
502 1 16.053 15.9933 3.56645 -1.53623 4.45251 0.506012 1 1
503 1 15.1228 15.1524 4.45809 -1.70313 -2.16353 -1.21164 1 1
504 1 16.8899 16.9142 4.39174 2.92804 -2.39341 -3.0236 1 1
505 1 16.9427 15.1475 6.22374 -2.43733 -2.1985 0.365543 1 1
506 1 17.8019 16.04 5.29934 -10.048 -1.18008 -2.04294 1 1
507 1 19.5796 14.3186 5.36621 3.05922 0.515715 6.04581 1 1
508 1 19.5896 16.0535 3.58224 0.877475 1.97986 -0.668313 1 1
509 1 18.6993 15.1737 4.45856 -4.82455 -0.295935 -7.30136 1 1
510 1 20.5083 16.9656 4.45316 -2.66039 1.61057 2.41102 1 1
511 1 19.6477 17.8532 5.30607 6.16543 -6.03514 -2.11377 1 1
512 1 20.5124 15.145 6.22838 -2.72259 1.7924 2.10444 1 1
513 1 1.78803 19.6684 3.50815 4.44076 -5.73386 -4.97563 1 1
514 1 0.882449 18.7498 4.44042 2.47766 -2.40214 2.28228 1 1
515 1 0.910277 20.4966 6.22059 1.3114 -5.77837 0.156979 1 1
516 1 2.66301 20.5322 4.44574 3.47598 1.5823 -3.50128 1 1
517 1 21.3811 17.8348 3.54434 12.7192 0.764811 2.1958 1 1
518 1 21.3631 19.6525 5.33668 -2.43964 -7.51993 5.47979 1 1
519 1 2.65782 18.693 6.20999 -6.02178 8.73717 3.0732 1 1
520 1 5.34242 17.8256 5.38792 -1.27443 -5.85336 -8.52381 1 1
521 1 3.55676 17.8503 3.5595 -3.05006 1.92402 -6.48832 1 1
522 1 3.57869 19.5416 5.30705 -1.71432 0.79147 -5.86774 1 1
523 1 5.36217 19.5845 3.58934 -1.07598 -0.442816 -0.429483 1 1
524 1 4.46631 18.6854 4.44881 -3.45397 -5.86007 4.54434 1 1
525 1 4.43609 20.4825 6.22771 -1.63004 -0.324401 0.514661 1 1
526 1 6.26558 18.7426 6.26481 2.57101 0.506025 -7.0475 1 1
527 1 6.22455 20.4901 4.4909 -2.66889 3.28271 0.80542 1 1
528 1 7.14368 17.8118 3.57257 -9.64804 3.41977 -9.87846 1 1
529 1 7.14916 19.625 5.42006 3.54535 -5.66906 5.17862 1 1
530 1 8.90194 0.0126471 5.34654 4.62919 -2.46094 -1.9893 1 1
531 1 8.94366 19.5975 3.57614 -3.97503 12.6773 -5.49394 1 1
532 1 8.04471 18.7588 4.45288 1.10496 1.83829 -4.62428 1 1
533 1 8.05774 20.5332 6.2505 -0.0464172 -1.87567 3.68635 1 1
534 1 9.86544 18.7862 6.30179 -1.05682 -3.95138 -0.0391059 1 1
535 1 9.81524 20.549 4.45559 1.8681 9.04339 4.77698 1 1
536 1 10.7429 19.693 5.40949 2.19158 -4.44234 2.35504 1 1
537 1 10.715 0.0339595 3.5618 0.989454 2.69358 -1.88422 1 1
538 1 12.4441 19.6706 3.56208 -4.14952 1.65114 -0.967498 1 1
539 1 11.6007 18.7322 4.48133 0.665031 -0.543566 -3.85742 1 1
540 1 13.3533 18.742 6.28433 -6.84927 5.31429 0.209223 1 1
541 1 13.4265 20.5486 4.48337 0.795432 -6.80462 0.769098 1 1
542 1 15.9967 17.817 5.34944 -1.4671 0.22813 2.1836 1 1
543 1 14.3119 0.0101056 3.59101 -0.322382 0.0624603 2.71074 1 1
544 1 14.2855 19.6104 5.35761 2.24865 -1.83168 -6.12226 1 1
545 1 16.0626 19.6315 3.56999 -10.3146 -3.90198 -1.66219 1 1
546 1 15.1435 18.7513 4.50515 -2.22668 -6.49284 -4.43928 1 1
547 1 16.9207 18.6753 6.26123 1.91162 -2.6275 7.35182 1 1
548 1 16.9577 20.5138 4.47518 1.12046 -1.30543 -3.18473 1 1
549 1 17.8502 19.5842 5.35974 -0.866573 -3.4422 -4.5761 1 1
550 1 17.8687 17.7988 3.56978 -2.31933 8.02068 3.23004 1 1
551 1 19.6397 19.6469 3.52273 -1.52406 -3.47491 -0.124214 1 1
552 1 18.7328 18.6745 4.41903 0.211046 4.57285 -1.58316 1 1
553 1 18.7074 20.5066 6.21121 3.88212 1.02222 -8.51612 1 1
554 1 20.5335 18.7259 6.21809 -1.30079 1.92924 -5.71465 1 1
555 1 20.5047 20.5346 4.40498 -8.06542 -5.88202 1.3256 1 1