ITEM: TIMESTEP
1800
ITEM: NUMBER OF ATOMS
2952
ITEM: BOX BOUNDS pp pp mm
0.0000000000000000e+00 2.1394294200000001e+01
0.0000000000000000e+00 2.1394294200000001e+01
-4.4571446250000002e-01 5.3485735500000004e+01
ITEM: ATOMS id type x y z vx vy vz v_is_diamond c_structure_type
1 1 0 0 0 0 0 0 1 3
2 1 1.78286 1.78286 0 0 0 0 1 3
3 1 0.891429 0.891429 0.891429 0 0 0 1 2
4 1 0.911292 2.64282 2.65781 1.96844 0.716613 -3.32408 1 1
5 1 2.6959 0.885615 2.67219 -4.2302 5.87731 0.549336 1 1
6 1 2.67429 2.67429 0.891429 0 0 0 1 2
7 1 21.379 1.77009 1.77499 -0.954258 1.19663 1.45231 1 1
8 1 1.79838 21.3876 1.8067 -0.028805 -9.89944 -0.295537 1 1
9 1 1.79571 3.56177 1.80399 -0.457253 1.14076 -7.44697 1 1
10 1 3.58879 1.77652 1.79971 -0.819926 -6.51874 3.01296 1 1
11 1 3.56572 0 0 0 0 0 1 3
12 1 5.34857 1.78286 0 0 0 0 1 3
13 1 4.45714 0.891429 0.891429 0 0 0 1 2
14 1 4.46356 2.68842 2.70731 -1.71472 -0.474807 0.0153097 1 1
15 1 6.24616 0.938203 2.67912 6.48969 1.04758 -3.99881 1 1
16 1 6.24 2.67429 0.891429 0 0 0 1 2
17 1 7.14724 1.77449 1.77026 -0.450551 5.55773 0.960947 1 1
18 1 7.13143 0 0 0 0 0 1 3
19 1 8.02286 0.891429 0.891429 0 0 0 1 2
20 1 8.04156 2.65672 2.67145 5.15229 -4.5712 0.0459039 1 1
21 1 8.91429 1.78286 0 0 0 0 1 3
22 1 9.84036 0.881739 2.72021 -3.75066 4.14596 5.19599 1 1
23 1 9.80572 2.67429 0.891429 0 0 0 1 2
24 1 8.91908 21.3686 1.84294 -3.2462 -0.776241 1.29568 1 1
25 1 10.6707 1.79122 1.79935 3.40701 -2.30431 -6.60745 1 1
26 1 10.6971 0 0 0 0 0 1 3
27 1 12.48 1.78286 0 0 0 0 1 3
28 1 11.5886 0.891429 0.891429 0 0 0 1 2
29 1 11.5827 2.68571 2.66422 4.01351 -2.55412 -14.6085 1 1
30 1 13.391 0.861054 2.65132 -8.77923 -4.40816 1.58863 1 1
31 1 13.3714 2.67429 0.891429 0 0 0 1 2
32 1 14.2869 1.76882 1.74729 -1.54125 2.25526 -4.66718 1 1
33 1 14.2629 0 0 0 0 0 1 3
34 1 16.0457 1.78286 0 0 0 0 1 3
35 1 15.1543 0.891429 0.891429 0 0 0 1 2
36 1 15.1531 2.68761 2.59097 4.98259 0.0847921 -5.75085 1 1
37 1 16.9781 0.903251 2.66812 0.418294 12.2562 -3.0893 1 1
38 1 16.9371 2.67429 0.891429 0 0 0 1 2
39 1 16.0518 0.0249908 1.76285 -2.60644 -2.35274 4.84931 1 1
40 1 17.8383 1.8029 1.78672 -1.18291 -6.12197 0.979644 1 1
41 1 17.8286 0 0 0 0 0 1 3
42 1 19.6114 1.78286 0 0 0 0 1 3
43 1 18.72 0.891429 0.891429 0 0 0 1 2
44 1 18.7108 2.67229 2.6833 -1.41799 -5.92219 7.37533 1 1
45 1 20.4889 0.87662 2.67171 -2.60012 -6.52348 11.8533 1 1
46 1 20.5029 2.67429 0.891429 0 0 0 1 2
47 1 0 3.56572 0 0 0 0 1 3
48 1 1.78286 5.34857 0 0 0 0 1 3
49 1 0.891429 4.45714 0.891429 0 0 0 1 2
50 1 0.921544 6.25532 2.65224 -6.43454 -0.0670517 -0.665836 1 1
51 1 2.68864 4.46075 2.66487 -2.3286 -5.39994 0.991481 1 1
52 1 2.67429 6.24 0.891429 0 0 0 1 2
53 1 3.56754 5.3626 1.73352 5.0501 1.43052 -7.38905 1 1
54 1 5.35859 3.57363 1.79697 -2.47115 -0.223804 0.554628 1 1
55 1 3.56572 3.56572 0 0 0 0 1 3
56 1 5.34857 5.34857 0 0 0 0 1 3
57 1 4.45714 4.45714 0.891429 0 0 0 1 2
58 1 4.45688 6.25713 2.69382 2.07092 2.56092 6.77718 1 1
59 1 6.24733 4.48259 2.65567 -6.3898 0.701448 8.82924 1 1
60 1 6.24 6.24 0.891429 0 0 0 1 2
61 1 5.32961 7.15138 1.81896 -0.951753 0.672118 -3.93063 1 1
62 1 7.1347 5.33017 1.82179 -5.41129 -3.65499 2.8831 1 1
63 1 7.13143 3.56572 0 0 0 0 1 3
64 1 8.91651 3.56434 1.77646 -6.10721 -1.14936 -5.59506 1 1
65 1 8.02286 4.45714 0.891429 0 0 0 1 2
66 1 8.02177 6.26454 2.70831 3.40316 -1.46821 0.728765 1 1
67 1 8.91429 5.34857 0 0 0 0 1 3
68 1 9.84299 4.47685 2.66161 6.91591 2.20363 -3.03177 1 1
69 1 9.80572 6.24 0.891429 0 0 0 1 2
70 1 10.6644 5.35437 1.76556 0.837812 0.980049 1.23049 1 1
71 1 12.421 3.56752 1.78441 0.34004 -1.60469 -5.64573 1 1
72 1 10.6971 3.56572 0 0 0 0 1 3
73 1 12.48 5.34857 0 0 0 0 1 3
74 1 11.5886 4.45714 0.891429 0 0 0 1 2
75 1 11.5798 6.22762 2.6896 -5.19932 -6.16977 -0.96914 1 1
76 1 13.3558 4.46482 2.62735 2.64313 3.00741 4.90677 1 1
77 1 13.3714 6.24 0.891429 0 0 0 1 2
78 1 14.2367 5.3637 1.78195 0.307893 -4.94315 -3.5416 1 1
79 1 16.0272 3.58112 1.77004 -5.10948 1.54311 4.47854 1 1
80 1 14.2629 3.56572 0 0 0 0 1 3
81 1 16.0457 5.34857 0 0 0 0 1 3
82 1 15.1543 4.45714 0.891429 0 0 0 1 2
83 1 15.1226 6.22672 2.68137 0.667543 1.5222 -1.63403 1 1
84 1 16.9517 4.43744 2.67202 1.84433 -6.81299 6.46553 1 1
85 1 16.9371 6.24 0.891429 0 0 0 1 2
86 1 17.8402 5.34723 1.77172 -0.918832 -0.538837 -0.523167 1 1
87 1 19.6299 3.56456 1.82351 2.14456 3.37538 5.42295 1 1
88 1 0.0269461 5.35493 1.79381 3.10312 5.41328 -2.84623 1 1
89 1 17.8286 3.56572 0 0 0 0 1 3
90 1 19.6114 5.34857 0 0 0 0 1 3
91 1 18.72 4.45714 0.891429 0 0 0 1 2
92 1 18.7516 6.21259 2.66835 0.264046 -9.96973 -4.52325 1 1
93 1 20.498 4.50205 2.67294 1.95833 0.645123 5.85071 1 1
94 1 20.5029 6.24 0.891429 0 0 0 1 2
95 1 19.6309 7.13175 1.7549 5.94222 -3.31153 -3.48839 1 1
96 1 1.78999 7.14811 1.80766 -9.12067 7.51481 -1.1712 1 1
97 1 0 7.13143 0 0 0 0 1 3
98 1 0.891429 8.02286 0.891429 0 0 0 1 2
99 1 2.68849 8.00315 2.66453 0.454879 2.49106 -5.98124 1 1
100 1 1.78286 8.91429 0 0 0 0 1 3
101 1 0.864989 9.82218 2.6985 -5.45625 -8.06127 -3.25316 1 1
102 1 2.67429 9.80572 0.891429 0 0 0 1 2
103 1 1.7796 10.6951 1.78212 -3.0662 -0.746399 -2.13808 1 1
104 1 3.54724 8.86665 1.78788 5.25128 -2.72142 -1.45438 1 1
105 1 3.56572 7.13143 0 0 0 0 1 3
106 1 4.45714 8.02286 0.891429 0 0 0 1 2
107 1 6.22363 7.9906 2.71935 6.18179 4.71655 1.64613 1 1
108 1 5.34857 8.91429 0 0 0 0 1 3
109 1 4.48195 9.80851 2.69239 4.7532 2.18085 1.37198 1 1
110 1 6.24 9.80572 0.891429 0 0 0 1 2
111 1 7.11213 8.88855 1.80264 7.25304 -6.8405 -4.84784 1 1
112 1 8.87222 7.17584 1.79788 -5.21978 0.155706 -8.69401 1 1
113 1 7.13143 7.13143 0 0 0 0 1 3
114 1 8.02286 8.02286 0.891429 0 0 0 1 2
115 1 9.79296 8.06868 2.72547 4.76546 -2.06167 4.37043 1 1
116 1 8.02643 9.79276 2.68999 3.17204 0.533799 7.00204 1 1
117 1 8.91429 8.91429 0 0 0 0 1 3
118 1 9.80572 9.80572 0.891429 0 0 0 1 2
119 1 10.6885 8.93335 1.81124 -4.55698 -2.10409 -6.26934 1 1
120 1 12.4806 7.13794 1.77223 -3.95054 -1.3259 0.179211 1 1
121 1 10.6971 7.13143 0 0 0 0 1 3
122 1 11.5886 8.02286 0.891429 0 0 0 1 2
123 1 13.3626 8.03219 2.71383 3.79368 3.77482 4.14579 1 1
124 1 12.48 8.91429 0 0 0 0 1 3
125 1 11.5914 9.79702 2.69701 -7.80568 8.78635 8.84357 1 1
126 1 13.3714 9.80572 0.891429 0 0 0 1 2
127 1 12.4821 10.7172 1.74995 0.761434 -1.30324 -1.67109 1 1
128 1 16.0512 7.12926 1.80719 1.3919 0.0198662 -1.33515 1 1
129 1 14.2654 8.92959 1.80048 1.0897 -3.94865 -3.026 1 1
130 1 14.2629 7.13143 0 0 0 0 1 3
131 1 15.1543 8.02286 0.891429 0 0 0 1 2
132 1 16.9013 8.04937 2.71119 4.65363 -1.16539 1.66232 1 1
133 1 16.0457 8.91429 0 0 0 0 1 3
134 1 15.1598 9.80991 2.71163 5.50764 5.24886 0.410418 1 1
135 1 16.9371 9.80572 0.891429 0 0 0 1 2
136 1 16.0422 10.6806 1.79967 1.92004 2.26664 6.32401 1 1
137 1 17.8205 8.90244 1.82267 -6.3367 -2.77509 0.799894 1 1
138 1 21.3655 8.94666 1.78538 2.66328 -2.9107 -4.24643 1 1
139 1 17.8286 7.13143 0 0 0 0 1 3
140 1 18.72 8.02286 0.891429 0 0 0 1 2
141 1 20.5118 8.01568 2.66983 3.39833 -10.5487 -1.32776 1 1
142 1 19.6114 8.91429 0 0 0 0 1 3
143 1 18.7235 9.81743 2.70706 -2.99531 0.366935 1.24105 1 1
144 1 20.5029 9.80572 0.891429 0 0 0 1 2
145 1 0 10.6971 0 0 0 0 1 3
146 1 1.78286 12.48 0 0 0 0 1 3
147 1 0.891429 11.5886 0.891429 0 0 0 1 2
148 1 2.67619 11.5906 2.67627 -3.90069 -0.315851 -8.17034 1 1
149 1 0.887366 13.4099 2.65791 -0.305011 1.74266 3.25403 1 1
150 1 2.67429 13.3714 0.891429 0 0 0 1 2
151 1 0.0123641 12.4937 1.80418 11.5638 0.27869 -15.8856 1 1
152 1 5.34875 10.6925 1.78734 -2.33153 8.742 4.25839 1 1
153 1 3.55685 12.4588 1.80888 4.53472 2.67957 5.68045 1 1
154 1 3.56572 10.6971 0 0 0 0 1 3
155 1 5.34857 12.48 0 0 0 0 1 3
156 1 4.45714 11.5886 0.891429 0 0 0 1 2
157 1 6.24543 11.6015 2.69212 -5.06752 0.521563 5.2658 1 1
158 1 4.4682 13.3561 2.66576 8.27933 0.723633 -5.70774 1 1
159 1 6.24 13.3714 0.891429 0 0 0 1 2
160 1 5.35171 14.2571 1.74915 -5.39724 5.19602 2.70396 1 1
161 1 8.89483 10.7002 1.78819 -7.60436 0.771134 -8.87683 1 1
162 1 7.15033 12.4775 1.77578 -5.50746 6.414 -2.04935 1 1
163 1 7.13143 10.6971 0 0 0 0 1 3
164 1 8.02286 11.5886 0.891429 0 0 0 1 2
165 1 8.91429 12.48 0 0 0 0 1 3
166 1 9.80193 11.63 2.65172 -2.21924 7.33586 2.71444 1 1
167 1 8.0378 13.3649 2.63652 4.89104 7.46998 -2.12356 1 1
168 1 9.80572 13.3714 0.891429 0 0 0 1 2
169 1 10.7554 12.4758 1.75312 -9.9447 3.65148 6.45577 1 1
170 1 10.6971 10.6971 0 0 0 0 1 3
171 1 12.48 12.48 0 0 0 0 1 3
172 1 11.5886 11.5886 0.891429 0 0 0 1 2
173 1 13.3651 11.593 2.68068 -1.14633 -0.328911 0.47216 1 1
174 1 11.6117 13.3289 2.638 -2.05004 -6.65828 1.79949 1 1
175 1 13.3714 13.3714 0.891429 0 0 0 1 2
176 1 12.4965 14.2455 1.79378 0.190878 0.749889 6.57425 1 1
177 1 14.2714 12.5076 1.7975 -8.00359 -5.83192 -7.3465 1 1
178 1 14.2629 10.6971 0 0 0 0 1 3
179 1 16.0457 12.48 0 0 0 0 1 3
180 1 15.1543 11.5886 0.891429 0 0 0 1 2
181 1 16.9424 11.5948 2.65321 2.37027 -3.54769 7.5692 1 1
182 1 15.1587 13.3918 2.69242 -9.09309 -2.67099 2.96677 1 1
183 1 16.9371 13.3714 0.891429 0 0 0 1 2
184 1 17.8527 12.497 1.76436 -4.91 -0.115542 -3.23277 1 1
185 1 19.6492 10.7078 1.77915 1.23316 5.93301 -1.73096 1 1
186 1 17.8286 10.6971 0 0 0 0 1 3
187 1 19.6114 12.48 0 0 0 0 1 3
188 1 18.72 11.5886 0.891429 0 0 0 1 2
189 1 20.5034 11.6643 2.71367 -1.54014 -1.07325 1.97444 1 1
190 1 18.7398 13.3511 2.6795 6.90744 -3.85041 0.663604 1 1
191 1 20.5029 13.3714 0.891429 0 0 0 1 2
192 1 19.647 14.2689 1.78455 3.85655 -4.90375 -2.95224 1 1
193 1 1.78082 14.2764 1.7808 4.65346 -2.39604 -1.31102 1 1
194 1 0 14.2629 0 0 0 0 1 3
195 1 1.78286 16.0457 0 0 0 0 1 3
196 1 0.891429 15.1543 0.891429 0 0 0 1 2
197 1 0.957571 16.9492 2.69925 -0.172016 5.68854 5.15028 1 1
198 1 2.6986 15.1363 2.66955 0.711916 -3.81635 -6.39484 1 1
199 1 2.67429 16.9371 0.891429 0 0 0 1 2
200 1 0.00464649 16.0825 1.76972 0.996853 -6.38762 2.84091 1 1
201 1 3.58207 16.06 1.79928 -6.26978 2.33281 -9.38261 1 1
202 1 3.56572 14.2629 0 0 0 0 1 3
203 1 5.34857 16.0457 0 0 0 0 1 3
204 1 4.45714 15.1543 0.891429 0 0 0 1 2
205 1 4.47289 16.9353 2.69018 -4.96673 -7.95735 -5.98266 1 1
206 1 6.25358 15.1652 2.66898 0.373436 3.4256 -0.184551 1 1
207 1 6.24 16.9371 0.891429 0 0 0 1 2
208 1 7.17289 16.0768 1.7898 -1.3315 -1.89149 -3.54197 1 1
209 1 5.34743 17.8321 1.79923 1.82427 -1.56854 -0.416471 1 1
210 1 8.90857 14.2456 1.78629 -4.13055 -1.96448 -1.57577 1 1
211 1 7.13143 14.2629 0 0 0 0 1 3
212 1 8.02286 15.1543 0.891429 0 0 0 1 2
213 1 8.00372 16.9735 2.65087 -4.63151 -6.64402 4.08889 1 1
214 1 8.91429 16.0457 0 0 0 0 1 3
215 1 9.81809 15.1249 2.69773 -4.11491 -0.421335 7.1384 1 1
216 1 9.80572 16.9371 0.891429 0 0 0 1 2
217 1 8.95069 17.8899 1.76423 3.68346 6.71865 -2.9849 1 1
218 1 10.68 16.0692 1.80171 1.97547 -1.42373 4.92763 1 1
219 1 10.6971 14.2629 0 0 0 0 1 3
220 1 12.48 16.0457 0 0 0 0 1 3
221 1 11.5886 15.1543 0.891429 0 0 0 1 2
222 1 11.633 16.9159 2.67426 0.352953 1.35415 -4.45811 1 1
223 1 13.3899 15.1506 2.66379 -2.05823 5.29189 4.26065 1 1
224 1 13.3714 16.9371 0.891429 0 0 0 1 2
225 1 12.4563 17.8294 1.77022 -7.49511 -2.60029 -4.3476 1 1
226 1 16.0489 14.2445 1.81947 -6.19834 11.8362 -4.60845 1 1
227 1 14.2904 16.0426 1.79623 4.53802 -0.583257 -2.02683 1 1
228 1 14.2629 14.2629 0 0 0 0 1 3
229 1 16.0457 16.0457 0 0 0 0 1 3
230 1 15.1543 15.1543 0.891429 0 0 0 1 2
231 1 15.1586 16.9679 2.71934 -0.377176 -2.34306 -2.51373 1 1
232 1 16.9347 15.1547 2.66827 1.70644 -11.8152 -7.12013 1 1
233 1 16.9371 16.9371 0.891429 0 0 0 1 2
234 1 17.8261 16.0109 1.78878 2.18925 2.03548 1.08623 1 1
235 1 17.8286 14.2629 0 0 0 0 1 3
236 1 19.6114 16.0457 0 0 0 0 1 3
237 1 18.72 15.1543 0.891429 0 0 0 1 2
238 1 18.6872 16.8879 2.6984 -1.55828 0.0193144 -2.4308 1 1
239 1 20.5059 15.2106 2.7118 -6.02231 4.32881 12.6589 1 1
240 1 20.5029 16.9371 0.891429 0 0 0 1 2
241 1 19.6109 17.8608 1.81212 12.0413 3.35671 -6.84388 1 1
242 1 1.8302 17.8216 1.76644 5.22064 1.81416 0.27032 1 1
243 1 0 17.8286 0 0 0 0 1 3
244 1 1.78286 19.6114 0 0 0 0 1 3
245 1 0.891429 18.72 0.891429 0 0 0 1 2
246 1 0.926498 20.5258 2.65318 -4.37393 -0.957118 2.0644 1 1
247 1 2.64528 18.7211 2.68173 3.30043 3.13186 -2.12316 1 1
248 1 2.67429 20.5029 0.891429 0 0 0 1 2
249 1 3.58805 19.6126 1.78033 2.32012 5.06768 0.884594 1 1
250 1 0.0107376 19.6348 1.75108 -6.30861 2.15033 2.30224 1 1
251 1 5.40102 21.3669 1.78592 1.01949 -1.20528 -3.03057 1 1
252 1 3.56572 17.8286 0 0 0 0 1 3
253 1 5.34857 19.6114 0 0 0 0 1 3
254 1 4.45714 18.72 0.891429 0 0 0 1 2
255 1 4.43054 20.4748 2.6781 5.49736 -6.43951 -4.93066 1 1
256 1 6.21561 18.7318 2.68198 -0.160432 -1.40101 -1.17241 1 1
257 1 6.24 20.5029 0.891429 0 0 0 1 2
258 1 7.16803 19.6086 1.82283 -0.813431 -2.18633 -1.87966 1 1
259 1 7.13143 17.8286 0 0 0 0 1 3
260 1 8.02286 18.72 0.891429 0 0 0 1 2
261 1 8.01974 20.485 2.71316 -0.0765572 -1.95176 11.1861 1 1
262 1 8.91429 19.6114 0 0 0 0 1 3
263 1 9.82986 18.7568 2.68597 -5.97668 -1.59585 3.3056 1 1
264 1 9.80572 20.5029 0.891429 0 0 0 1 2
265 1 10.7288 19.6104 1.78199 -10.4219 -5.2178 7.49457 1 1
266 1 12.4599 0.0126411 1.74238 2.25328 0.505578 2.91872 1 1
267 1 10.6971 17.8286 0 0 0 0 1 3
268 1 12.48 19.6114 0 0 0 0 1 3
269 1 11.5886 18.72 0.891429 0 0 0 1 2
270 1 11.5984 20.533 2.67705 7.75298 -1.17789 -0.340364 1 1
271 1 13.3989 18.6993 2.64431 8.15071 -10.991 -7.99625 1 1
272 1 13.3714 20.5029 0.891429 0 0 0 1 2
273 1 14.2715 19.6712 1.78801 -4.04986 3.90664 -8.50368 1 1
274 1 16.0543 17.8433 1.78662 -0.97953 -1.10031 2.97616 1 1
275 1 14.2629 17.8286 0 0 0 0 1 3
276 1 16.0457 19.6114 0 0 0 0 1 3
277 1 15.1543 18.72 0.891429 0 0 0 1 2
278 1 15.1783 20.5239 2.65968 -3.65369 2.70753 -1.29641 1 1
279 1 16.8957 18.7384 2.65526 5.97224 2.21451 1.67673 1 1
280 1 16.9371 20.5029 0.891429 0 0 0 1 2
281 1 19.6488 21.3463 1.79133 -6.24256 -0.757618 7.94147 1 1
282 1 17.8609 19.5741 1.77771 4.29006 -4.02861 1.27089 1 1
283 1 17.8286 17.8286 0 0 0 0 1 3
284 1 19.6114 19.6114 0 0 0 0 1 3
285 1 18.72 18.72 0.891429 0 0 0 1 2
286 1 18.7933 20.4648 2.65059 -1.47175 1.58675 -0.236808 1 1
287 1 20.5448 18.7474 2.66839 -3.88634 -0.348342 3.2494 1 1
288 1 20.5029 20.5029 0.891429 0 0 0 1 2
289 1 1.75187 1.82428 3.60788 -8.07493 4.38478 0.555494 1 1
290 1 0.852917 0.928373 4.48878 1.67533 -3.76127 6.00106 1 1
291 1 2.64439 2.68278 4.48449 0.45906 -5.25493 6.08725 1 1
292 1 1.76393 21.3907 5.40572 6.65061 4.83961 -8.25723 1 1
293 1 1.76915 3.56163 5.3955 5.22314 -2.17132 5.60683 1 1
294 1 21.3578 1.80404 5.42163 2.79305 -5.54476 -7.1972 1 1
295 1 0.0190203 21.389 3.57258 -2.12368 -3.77117 -1.018 1 1
296 1 3.58605 1.74759 5.3837 0.115128 4.41117 -5.98366 1 1
297 1 5.34191 1.78561 3.57124 3.38757 -1.37018 6.24114 1 1
298 1 4.48492 0.895208 4.47887 4.87482 -0.056665 5.00765 1 1
299 1 6.27573 0.912681 6.26137 -7.90584 1.13574 8.20546 1 1
300 1 6.28769 2.62362 4.46428 -5.47565 -6.0115 -8.97087 1 1
301 1 3.56789 21.3914 3.54607 1.12686 -5.60978 -1.7123 1 1
302 1 7.17273 0.0377598 3.60446 3.57833 5.73671 7.12348 1 1
303 1 5.35518 0.014461 5.399 -2.33599 -0.203874 0.913331 1 1
304 1 7.17785 3.55988 3.5379 2.03924 -2.53304 0.00419759 1 1
305 1 7.13737 1.78588 5.41591 1.93662 5.23337 -7.17054 1 1
306 1 8.92731 1.82518 3.56255 3.80235 7.16767 5.44124 1 1
307 1 8.08943 0.911877 4.53069 1.26307 1.00286 -0.315629 1 1
308 1 8.03922 2.71583 6.27134 -4.7339 5.23698 -3.13531 1 1
309 1 9.86768 0.871219 6.21097 2.86504 2.01017 -1.03214 1 1
310 1 9.82471 2.73819 4.47672 -1.20457 -2.89779 4.77151 1 1
311 1 10.7075 1.79741 5.31485 -2.88294 -5.5612 -0.422404 1 1
312 1 12.4648 1.77627 3.55192 6.45007 7.77865 1.72032 1 1
313 1 11.5839 0.89639 4.44302 0.667729 4.12563 4.56083 1 1
314 1 11.6096 2.65848 6.24002 2.32275 3.56786 8.73721 1 1
315 1 13.3864 2.69234 4.39045 5.25526 -3.06834 8.10504 1 1
316 1 13.3756 0.878329 6.27889 4.505 -2.11892 2.88273 1 1
317 1 12.4523 3.56438 5.35512 -13.2761 1.04345 -4.63571 1 1
318 1 14.2679 1.74575 5.3229 -6.47649 -1.22812 -1.30984 1 1
319 1 12.476 21.3764 5.34321 6.30812 -2.774 -0.550616 1 1
320 1 14.255 3.57041 3.48167 0.174773 -6.83334 2.38869 1 1
321 1 16.0648 1.82802 3.59473 -4.45822 -5.83879 5.94179 1 1
322 1 15.2062 0.858068 4.463 -2.66412 -0.725529 -0.867608 1 1
323 1 15.1582 2.63325 6.21233 0.579963 11.5435 0.997517 1 1
324 1 16.9472 2.68896 4.4418 -4.01358 0.773639 5.56683 1 1
325 1 17.8462 1.77971 5.38312 -5.6385 8.0943 0.732504 1 1
326 1 16.0617 21.3542 5.3791 6.49008 0.130716 0.159365 1 1
327 1 19.6198 1.76583 3.57848 1.9181 -3.66779 2.548 1 1
328 1 18.7561 0.899266 4.49714 -2.35365 0.980054 8.48921 1 1
329 1 20.5022 2.69728 4.45223 2.41704 7.43818 -0.338445 1 1
330 1 17.8376 0.0290936 3.55423 0.279443 -3.98817 -2.58391 1 1
331 1 19.6157 21.3799 5.33453 0.57334 4.65943 1.16798 1 1
332 1 0.0560243 3.59286 3.56209 -2.37756 -3.13191 8.46016 1 1
333 1 1.78639 5.35555 3.56063 3.24941 5.06347 -1.13299 1 1
334 1 0.931824 4.51932 4.52395 -3.30642 12.4967 11.393 1 1
335 1 2.68495 4.42611 6.29411 -5.34001 8.1058 2.45154 1 1
336 1 2.66423 6.2622 4.48468 -3.47072 -3.89205 2.29528 1 1
337 1 3.57278 3.55545 3.55989 2.38018 -0.522115 5.27813 1 1
338 1 0.00900823 5.3834 5.35478 2.33782 -0.131991 1.60853 1 1
339 1 3.59686 5.35312 5.35676 -7.94325 -2.10872 6.26003 1 1
340 1 5.39623 3.53001 5.34824 -1.91759 2.03818 -1.86744 1 1
341 1 5.32038 5.36921 3.58891 -5.55988 -0.369181 5.44368 1 1
342 1 4.50741 4.4513 4.45314 9.46253 2.34241 -2.53684 1 1
343 1 4.46242 6.2287 6.25931 1.15754 -9.46565 -3.34496 1 1
344 1 6.24306 6.20817 4.48403 -1.36039 2.97883 -1.15069 1 1
345 1 7.14431 5.37475 5.36334 3.40341 -4.23549 -0.545251 1 1
346 1 5.36639 7.10463 5.35046 -2.81011 -11.3323 -2.35975 1 1
347 1 6.31822 4.4335 6.25701 0.708942 0.359787 12.9286 1 1
348 1 8.92559 3.5774 5.37729 -2.30412 -2.87896 -4.55552 1 1
349 1 10.7018 3.60781 3.54084 1.44142 -3.22698 -2.81044 1 1
350 1 8.93695 5.36733 3.58627 1.90578 1.14111 2.051 1 1
351 1 8.06755 4.43195 4.4519 -0.679926 -6.72588 1.71351 1 1
352 1 8.03045 6.24498 6.26849 4.00285 -1.60384 -0.0878761 1 1
353 1 9.84556 4.47604 6.24436 4.29597 -3.2869 -0.351843 1 1
354 1 9.82306 6.28351 4.48246 -4.20676 1.85225 -1.0119 1 1
355 1 10.7067 5.37781 5.33743 3.36657 -11.6832 -4.10267 1 1
356 1 12.4387 5.36878 3.55084 -0.405382 2.40569 -3.84402 1 1
357 1 11.5796 4.47098 4.44997 -1.35117 4.06825 1.92673 1 1
358 1 13.398 6.24533 4.43979 -4.66026 -2.65782 2.04694 1 1
359 1 14.2393 5.35332 5.29321 1.27985 7.6799 6.39164 1 1
360 1 16.057 3.5534 5.30782 -0.0440099 -5.20099 1.03035 1 1
361 1 17.806 3.59685 3.54983 4.9502 -4.32016 -4.56028 1 1
362 1 16.027 5.36637 3.5757 -2.95259 3.56871 -3.04346 1 1
363 1 15.1317 4.45604 4.42317 0.08817 10.0997 -8.12675 1 1
364 1 16.9628 6.24463 4.46212 3.05349 1.83877 6.1734 1 1
365 1 16.953 4.47386 6.20693 3.31458 -7.4833 7.49909 1 1
366 1 16.0539 7.13988 5.3292 -3.39464 -2.38311 -0.899741 1 1
367 1 15.1595 6.2378 6.16975 -0.204116 -5.4395 3.29282 1 1
368 1 19.5811 3.55654 5.36082 -7.03368 0.445823 5.04153 1 1
369 1 17.8553 5.34193 5.33568 8.51181 -0.572367 -0.980599 1 1
370 1 19.6323 5.3491 3.58075 -8.91812 -1.3594 -3.70601 1 1
371 1 18.7569 4.47123 4.42884 -3.56856 -0.616165 -0.909312 1 1
372 1 20.4757 4.48253 6.2117 -0.27638 7.47532 7.57959 1 1
373 1 20.4958 6.26314 4.44725 -0.470763 -4.74997 3.61485 1 1
374 1 19.5832 7.16567 5.34837 3.29498 -4.48366 -2.39168 1 1
375 1 21.3883 7.15628 3.55477 2.66968 0.0539786 3.49117 1 1
376 1 1.78468 7.15877 5.37439 -4.61991 2.02753 6.36185 1 1
377 1 1.84132 8.9348 3.52606 -7.70538 7.63784 -2.28594 1 1
378 1 0.910023 7.99951 4.46296 -5.24206 -0.977472 0.973148 1 1
379 1 2.69566 8.07125 6.30897 -2.14081 3.62544 -0.236855 1 1
380 1 0.870306 9.77622 6.22908 1.95365 2.43618 -0.64107 1 1
381 1 2.66027 9.79236 4.53152 10.9989 4.47945 7.38931 1 1
382 1 0.0261079 8.9398 5.30691 3.9252 1.45087 0.593059 1 1
383 1 1.80589 10.7302 5.38467 3.49047 4.62022 6.43764 1 1
384 1 3.53759 7.15888 3.6018 4.21744 5.34642 10.3686 1 1
385 1 7.12279 7.09901 3.58934 -3.08121 4.47527 3.14849 1 1
386 1 3.5727 10.7012 3.57833 -0.236938 -3.86449 2.07352 1 1
387 1 3.58346 8.97525 5.37595 6.46795 -4.75035 5.00346 1 1
388 1 5.34416 8.89338 3.56931 1.54705 -6.7395 2.06697 1 1
389 1 4.43094 8.03303 4.51252 1.27935 5.2847 -13.2888 1 1
390 1 4.48092 9.81174 6.25275 0.100214 3.58759 -6.71371 1 1
391 1 6.26757 9.82001 4.45224 8.08391 4.66394 4.36471 1 1
392 1 8.90214 7.1406 5.3808 1.28026 0.548842 0.0665746 1 1
393 1 7.09753 8.89795 5.36512 0.733946 2.18492 1.89413 1 1
394 1 8.8835 8.92707 3.59759 -8.44507 0.0668557 3.06172 1 1
395 1 8.00868 7.99638 4.48205 -3.95187 -6.27572 0.209867 1 1
396 1 9.7728 9.82782 4.4982 -0.961201 4.25632 1.3632 1 1
397 1 10.6814 8.96056 5.36535 1.94173 6.53071 1.63139 1 1
398 1 10.7327 10.6878 3.62445 0.627935 1.61717 5.32127 1 1
399 1 9.82164 8.02652 6.23931 -4.79605 -0.494201 -1.85902 1 1
400 1 12.4649 7.14979 5.33268 4.82659 6.23052 0.142265 1 1
401 1 10.7282 7.13823 3.57116 1.9901 4.07743 -2.09595 1 1
402 1 12.476 8.93935 3.55625 0.79273 -7.09446 3.29089 1 1
403 1 11.5984 8.10162 4.4576 -9.51137 0.752173 4.08659 1 1
404 1 13.4168 9.85193 4.46376 3.69048 -6.34427 3.4324 1 1
405 1 14.258 7.15156 3.60576 -9.10341 2.60497 6.03711 1 1
406 1 14.2757 8.94143 5.38102 2.93046 1.29595 6.07042 1 1
407 1 17.8353 7.14085 3.5338 -2.32365 2.67379 2.11774 1 1
408 1 16.0608 8.92883 3.5692 1.67149 4.63066 -0.230229 1 1
409 1 15.2022 8.01886 4.47427 -6.98896 -8.64515 -2.37063 1 1
410 1 16.9743 9.83561 4.46587 2.19458 -10.0793 5.66099 1 1
411 1 16.0531 10.7068 5.31231 -3.57601 -6.05149 2.94842 1 1
412 1 16.9346 8.01842 6.24123 5.92679 3.44682 3.60302 1 1
413 1 17.815 8.96044 5.34104 -5.27894 -2.53116 4.5415 1 1
414 1 19.6225 8.93773 3.56941 4.96654 -3.18105 1.5828 1 1
415 1 18.7548 8.01777 4.47589 6.93968 -4.3864 3.2474 1 1
416 1 18.6742 9.83766 6.25414 -1.24864 1.05944 -1.30234 1 1
417 1 20.4842 9.83223 4.50332 -2.19656 -3.73468 -3.50685 1 1
418 1 20.5229 8.04652 6.23417 0.316133 0.0679575 -3.07605 1 1
419 1 19.5793 10.7238 5.38537 6.7594 -0.00189796 -1.0983 1 1
420 1 0.00107648 10.7194 3.60187 1.86197 -0.613081 1.27471 1 1
421 1 1.7761 12.4805 3.59335 3.24149 -9.62878 1.70949 1 1
422 1 0.906481 11.6057 4.50545 -0.233876 -1.12905 0.336024 1 1
423 1 2.64636 11.5552 6.2317 6.93671 0.791184 4.0303 1 1
424 1 0.922885 13.4238 6.25636 -1.69914 3.96206 -3.97264 1 1
425 1 2.69091 13.32 4.46118 -3.45403 1.74667 -5.15818 1 1
426 1 0.00679466 12.5513 5.3887 2.34732 1.0571 6.20978 1 1
427 1 5.37987 10.6968 5.3638 -3.17183 1.94972 5.0661 1 1
428 1 3.60816 14.2706 3.57996 2.95267 -3.39728 1.99575 1 1
429 1 3.54413 12.4695 5.40944 -2.19265 4.66522 0.128098 1 1
430 1 5.36876 12.4845 3.5837 2.09039 -4.6125 2.40071 1 1
431 1 4.47712 11.5966 4.50528 -0.249125 0.541151 -4.91219 1 1
432 1 6.22592 13.3204 4.46205 12.1124 -2.14319 -1.69244 1 1
433 1 7.12142 14.2397 3.52888 5.62373 -3.78428 -4.56749 1 1
434 1 6.24955 11.5748 6.2657 6.71305 0.0320874 0.370974 1 1
435 1 7.14166 10.7261 3.58641 0.922982 0.526558 4.58472 1 1
436 1 7.12501 12.467 5.34577 1.93226 0.0710725 2.74918 1 1
437 1 8.9532 10.6792 5.36798 -5.66522 3.98685 3.62923 1 1
438 1 8.96157 12.5045 3.54469 -3.88297 -0.0528295 1.89173 1 1
439 1 8.03557 11.5458 4.45766 3.35799 8.34401 -9.47571 1 1
440 1 9.80012 11.5121 6.22855 6.81737 -1.4727 -1.38136 1 1
441 1 7.95157 13.3372 6.28473 -5.46451 3.39955 -0.0767983 1 1
442 1 9.87982 13.3982 4.48349 -3.65085 1.69441 13.1379 1 1
443 1 10.7635 14.2309 3.58176 -1.83101 3.31693 3.38737 1 1
444 1 12.5429 10.6932 5.3852 5.11788 -3.18516 -2.49056 1 1
445 1 10.7404 12.4563 5.35369 4.34254 4.22288 -13.1298 1 1
446 1 12.5092 12.4576 3.57046 -8.74471 -1.12254 0.0841337 1 1
447 1 11.6255 11.5844 4.46904 -0.503265 -5.19695 6.67083 1 1
448 1 13.3998 11.5516 6.32909 -10.3178 1.96992 -1.4954 1 1
449 1 11.6274 13.3305 6.24603 -2.20262 6.12987 7.67641 1 1
450 1 13.3897 13.3531 4.44296 6.56041 -4.30842 -2.57253 1 1
451 1 14.2838 10.7124 3.56821 -0.917901 2.0776 3.22894 1 1
452 1 14.2866 12.449 5.3734 -3.25674 2.98669 2.51258 1 1
453 1 16.0205 12.4852 3.5579 -1.87435 -2.72886 -1.86339 1 1
454 1 15.168 11.6149 4.48491 5.26725 5.99537 11.7647 1 1
455 1 16.9522 11.6097 6.31096 1.66686 -10.5598 2.70062 1 1
456 1 16.9149 13.3807 4.44107 -4.32176 1.50901 -6.27512 1 1
457 1 17.8212 12.5269 5.35829 2.66537 2.83345 2.02841 1 1
458 1 15.1612 13.3389 6.27044 -10.886 4.60281 13.1225 1 1
459 1 17.8244 10.7182 3.60396 8.11287 2.59663 -1.85113 1 1
460 1 19.6403 12.4813 3.61163 1.28576 1.58693 6.69537 1 1
461 1 18.7008 11.6358 4.47973 1.34006 -2.5296 3.76802 1 1
462 1 18.6945 13.4484 6.24762 -1.95258 6.39008 -0.636551 1 1
463 1 20.5088 13.3675 4.52097 -4.30833 -7.12584 2.29523 1 1
464 1 20.4399 11.6074 6.2611 5.20797 1.18049 -2.72294 1 1
465 1 1.8589 14.2649 5.34652 -1.37868 3.73108 -9.64733 1 1
466 1 1.87642 16.0759 3.58116 4.94521 8.07057 -3.51314 1 1
467 1 0.923446 15.196 4.52727 1.51129 -1.65553 0.0425399 1 1
468 1 2.67675 15.1652 6.25749 -1.71959 -4.80314 1.96894 1 1
469 1 2.7396 16.9655 4.49836 0.256008 2.43825 5.68579 1 1
470 1 0.0662545 16.0507 5.38705 5.13622 2.1061 -0.541627 1 1
471 1 0.0305072 14.2738 3.60844 -4.55918 -0.941027 6.12278 1 1
472 1 1.7758 17.8065 5.40802 -6.31221 -5.29326 0.744939 1 1
473 1 5.3653 14.2363 5.37857 10.1949 -10.3347 0.873019 1 1
474 1 3.60583 16.0662 5.35675 4.05219 -3.81007 -6.20171 1 1
475 1 5.35693 16.0515 3.57624 3.85254 -4.25729 -3.47434 1 1
476 1 4.49269 15.1726 4.4803 3.90649 0.911858 -0.796635 1 1
477 1 4.46448 16.9631 6.23138 -0.116168 -9.04267 0.10552 1 1
478 1 6.24386 15.1312 6.23842 2.16303 -10.1639 2.4895 1 1
479 1 6.25823 16.9659 4.45121 -0.0982986 -4.98499 2.0422 1 1
480 1 7.15401 15.9937 5.34056 -6.72198 0.814373 -2.75422 1 1
481 1 8.93402 14.2677 5.38631 0.73155 -0.496101 11.1915 1 1
482 1 8.9137 16.0693 3.53399 6.42279 3.48503 0.174734 1 1
483 1 8.08313 15.1516 4.46149 -9.84454 -0.737162 -2.69654 1 1
484 1 8.05845 16.9319 6.24172 -6.2413 -1.09348 6.49153 1 1
485 1 9.80721 15.1058 6.30197 2.11761 -2.69083 -0.503877 1 1
486 1 9.79347 16.9167 4.42334 -1.77937 0.806348 4.82219 1 1
487 1 10.7393 16.0179 5.34584 2.25569 -1.28094 2.84097 1 1
488 1 8.93564 17.8402 5.35097 2.64862 -4.27297 1.6216 1 1
489 1 10.7014 17.8347 3.54193 -6.30208 -0.874964 -2.33922 1 1
490 1 12.5406 14.2739 5.36058 4.1914 -3.21007 1.05241 1 1
491 1 12.5346 16.0197 3.52631 -0.740113 4.74984 5.48994 1 1
492 1 11.6281 15.0969 4.45131 -0.352208 1.59219 2.15053 1 1
493 1 11.5914 16.9109 6.26298 3.68722 -3.46116 -0.736632 1 1
494 1 13.3841 16.9161 4.50041 2.48929 1.767 4.60274 1 1
495 1 13.4038 15.1179 6.23129 5.87094 0.237066 0.522934 1 1
496 1 12.4914 17.7498 5.39995 -4.15332 -8.55545 -2.03746 1 1
497 1 14.2668 14.2823 3.55394 -9.06571 10.1662 -0.610176 1 1
498 1 16.0173 14.262 5.37011 -4.6283 1.91054 -5.0914 1 1
499 1 17.855 14.2673 3.56565 -4.5014 -9.7646 -6.15027 1 1
500 1 14.2575 15.9948 5.3507 2.96547 4.65522 5.49926 1 1
501 1 14.2812 17.8274 3.5979 -9.38707 -1.59422 -6.03164 1 1
502 1 16.0251 16.0388 3.59658 1.18586 -1.318 3.36369 1 1
503 1 15.1275 15.1753 4.45759 -4.44554 -2.05388 7.52827 1 1
504 1 16.92 16.9121 4.51895 5.47518 5.09062 9.1326 1 1
505 1 16.9093 15.1486 6.28512 3.30378 -2.46086 3.82697 1 1
506 1 17.786 16.0368 5.38278 -4.47652 -1.49421 1.92037 1 1
507 1 19.6132 14.2693 5.35274 -3.93427 7.06311 7.47279 1 1
508 1 19.5901 16.0329 3.57108 1.60289 -2.70467 1.92006 1 1
509 1 18.7052 15.1559 4.50657 -1.54917 -1.67311 8.19084 1 1
510 1 20.5111 16.9433 4.47715 -3.04745 1.26065 2.41826 1 1
511 1 19.631 17.8473 5.39087 -2.10791 -2.22741 2.14614 1 1
512 1 20.5337 15.185 6.27976 4.03193 -1.52172 0.172322 1 1
513 1 1.78503 19.6166 3.55379 -1.03889 1.99479 6.28397 1 1
514 1 0.90726 18.7025 4.47308 -9.13996 4.67377 13.5485 1 1
515 1 0.901384 20.5434 6.3014 -2.45118 -3.32215 5.73351 1 1
516 1 2.68205 20.5227 4.50066 -8.61048 6.24762 4.52415 1 1
517 1 0.039765 17.845 3.56108 4.08953 -3.4049 -0.188733 1 1
518 1 0.0388533 19.5964 5.38796 10.018 -10.2469 -0.348035 1 1
519 1 2.67803 18.7149 6.27153 12.0331 1.01165 1.51976 1 1
520 1 5.32055 17.8554 5.36657 -1.78959 8.75664 2.09314 1 1
521 1 3.56536 17.8328 3.61665 3.81458 -4.02723 -7.71619 1 1
522 1 3.54846 19.6405 5.38475 -1.09016 -0.501238 -0.426213 1 1
523 1 5.32973 19.5976 3.56531 -6.39509 2.55755 2.48892 1 1
524 1 4.44958 18.7271 4.44226 0.0182386 1.99893 2.76719 1 1
525 1 4.44759 20.4917 6.27384 1.96863 -0.451591 -1.01383 1 1
526 1 6.23025 18.7303 6.24518 -8.2069 3.74586 0.981774 1 1
527 1 6.29705 20.5301 4.47699 1.77759 4.88207 -1.14371 1 1
528 1 7.12508 17.837 3.61503 -0.200762 -7.08255 -2.49108 1 1
529 1 7.14524 19.6202 5.32329 -1.69141 11.1982 3.49421 1 1
530 1 8.93959 21.3684 5.44072 -2.75589 -4.08899 -1.74522 1 1
531 1 8.89535 19.6399 3.56527 0.718954 -7.35325 -5.12353 1 1
532 1 8.02827 18.7649 4.41767 4.20639 3.0277 -6.81192 1 1
533 1 8.0029 20.4938 6.25726 6.14805 3.38894 -3.40044 1 1
534 1 9.83327 18.7762 6.23267 -2.69704 -5.7177 -7.98878 1 1
535 1 9.82661 20.4658 4.43063 -0.810804 1.05091 4.82306 1 1
536 1 10.7319 19.5863 5.32027 5.35094 0.747494 2.03923 1 1
537 1 10.7288 0.00489172 3.56488 -4.54704 8.48725 10.7061 1 1
538 1 12.5055 19.5479 3.53488 5.4429 1.47391 -2.41516 1 1
539 1 11.6168 18.6719 4.44933 5.30829 1.06876 1.54008 1 1
540 1 13.4189 18.6647 6.25067 6.92377 6.16753 3.0837 1 1
541 1 13.3637 20.4767 4.45317 -3.11847 3.91099 -1.06551 1 1
542 1 16.047 17.7535 5.39664 -4.67874 5.2116 -9.55477 1 1
543 1 14.2684 21.3645 3.53897 6.43165 6.41065 3.39093 1 1
544 1 14.2457 19.5938 5.38828 3.06886 8.04486 -5.49168 1 1
545 1 16.0338 19.6007 3.56918 1.83909 -5.43294 5.30885 1 1
546 1 15.1548 18.7128 4.46751 1.32224 3.38076 10.0585 1 1
547 1 16.899 18.7233 6.28791 2.79933 -8.488 2.118 1 1
548 1 16.942 20.4925 4.44109 3.47026 -3.89295 6.55367 1 1
549 1 17.7915 19.5683 5.36615 10.992 5.07839 5.18161 1 1
550 1 17.8272 17.8153 3.5683 2.16229 -0.35289 -6.05635 1 1
551 1 19.6393 19.5801 3.58507 6.75581 1.42964 -3.84018 1 1
552 1 18.7374 18.7009 4.47933 1.34733 0.457687 0.339113 1 1
553 1 18.6894 20.5018 6.26121 -4.79285 7.12301 2.90961 1 1
554 1 20.5096 18.7214 6.26048 -0.0295816 3.43175 0.790082 1 1
555 1 20.5133 20.4931 4.47931 1.852 5.08459 -5.48468 1 1
556 1 2.64149 0.89348 6.30444 4.04612 3.08008 -0.770421 1 1
557 1 0.823817 2.67389 6.28365 -7.29075 -0.160456 -2.1607 1 1