ITEM: TIMESTEP
1550
ITEM: NUMBER OF ATOMS
2952
ITEM: BOX BOUNDS pp pp mm
0.0000000000000000e+00 2.1394294200000001e+01
0.0000000000000000e+00 2.1394294200000001e+01
-4.4571446250000002e-01 5.3485735500000004e+01
ITEM: ATOMS id type x y z vx vy vz v_is_diamond c_structure_type
1 1 0 0 0 0 0 0 1 3
2 1 1.78286 1.78286 0 0 0 0 1 3
3 1 0.891429 0.891429 0.891429 0 0 0 1 2
4 1 0.876258 2.69873 2.68004 3.67134 5.01166 0.904237 1 1
5 1 2.63648 0.939994 2.70993 -5.76378 -0.323796 -0.969051 1 1
6 1 2.67429 2.67429 0.891429 0 0 0 1 2
7 1 21.4048 1.82183 1.77489 5.42384 -4.76233 -7.41312 1 1
8 1 1.75314 0.0128598 1.78088 2.19598 -0.931327 -6.14388 1 1
9 1 1.7879 3.52341 1.762 2.21601 1.00984 9.74225 1 1
10 1 3.58632 1.79019 1.80575 3.65558 3.37379 -5.46354 1 1
11 1 3.56572 0 0 0 0 0 1 3
12 1 5.34857 1.78286 0 0 0 0 1 3
13 1 4.45714 0.891429 0.891429 0 0 0 1 2
14 1 4.46817 2.71029 2.68082 4.76785 -1.43035 -2.98225 1 1
15 1 6.23651 0.882193 2.73199 -3.35336 -2.29076 1.20171 1 1
16 1 6.24 2.67429 0.891429 0 0 0 1 2
17 1 7.11871 1.81836 1.83076 2.56312 -0.462161 4.95924 1 1
18 1 7.13143 0 0 0 0 0 1 3
19 1 8.02286 0.891429 0.891429 0 0 0 1 2
20 1 8.05625 2.68575 2.6993 -2.28938 2.32324 -2.71553 1 1
21 1 8.91429 1.78286 0 0 0 0 1 3
22 1 9.81279 0.913183 2.64658 -7.31215 1.52951 -4.02642 1 1
23 1 9.80572 2.67429 0.891429 0 0 0 1 2
24 1 8.94303 -0.0148825 1.81267 -7.4672 -0.399128 4.99314 1 1
25 1 10.7005 1.81902 1.75223 -3.28313 1.10387 2.27294 1 1
26 1 10.6971 0 0 0 0 0 1 3
27 1 12.48 1.78286 0 0 0 0 1 3
28 1 11.5886 0.891429 0.891429 0 0 0 1 2
29 1 11.5684 2.6779 2.67274 -3.0906 2.27472 3.5965 1 1
30 1 13.3466 0.891179 2.65971 5.281 5.02799 -0.839748 1 1
31 1 13.3714 2.67429 0.891429 0 0 0 1 2
32 1 14.2875 1.75746 1.81159 0.668888 -0.154566 1.50352 1 1
33 1 14.2629 0 0 0 0 0 1 3
34 1 16.0457 1.78286 0 0 0 0 1 3
35 1 15.1543 0.891429 0.891429 0 0 0 1 2
36 1 15.1766 2.65547 2.69992 0.715567 -1.30219 7.95163 1 1
37 1 16.9244 0.993249 2.66305 -6.57062 -1.39741 8.6151 1 1
38 1 16.9371 2.67429 0.891429 0 0 0 1 2
39 1 16.0411 0.00528605 1.85379 4.03043 1.68449 -8.17931 1 1
40 1 17.8316 1.80388 1.78094 2.63615 4.88977 -3.68823 1 1
41 1 17.8286 0 0 0 0 0 1 3
42 1 19.6114 1.78286 0 0 0 0 1 3
43 1 18.72 0.891429 0.891429 0 0 0 1 2
44 1 18.7215 2.71483 2.70764 3.83902 4.41883 -3.53502 1 1
45 1 20.5374 0.947438 2.70281 -0.250488 6.866 -2.84086 1 1
46 1 20.5029 2.67429 0.891429 0 0 0 1 2
47 1 0 3.56572 0 0 0 0 1 3
48 1 1.78286 5.34857 0 0 0 0 1 3
49 1 0.891429 4.45714 0.891429 0 0 0 1 2
50 1 0.861666 6.27433 2.72507 -2.10886 2.11321 0.996682 1 1
51 1 2.65587 4.43498 2.676 -4.60165 3.5045 -1.47487 1 1
52 1 2.67429 6.24 0.891429 0 0 0 1 2
53 1 3.56278 5.34116 1.80266 -2.95015 -0.57479 7.31798 1 1
54 1 5.35474 3.58691 1.82783 1.09816 2.54971 -8.09365 1 1
55 1 3.56572 3.56572 0 0 0 0 1 3
56 1 5.34857 5.34857 0 0 0 0 1 3
57 1 4.45714 4.45714 0.891429 0 0 0 1 2
58 1 4.43428 6.23108 2.67685 -3.3295 3.00707 -1.62882 1 1
59 1 6.25351 4.44848 2.72277 -2.10981 -0.203754 -5.53992 1 1
60 1 6.24 6.24 0.891429 0 0 0 1 2
61 1 5.34495 7.14725 1.79119 4.0583 -4.08889 5.99574 1 1
62 1 7.13048 5.37292 1.78006 2.74448 1.56531 0.500487 1 1
63 1 7.13143 3.56572 0 0 0 0 1 3
64 1 8.95559 3.57708 1.85519 4.86056 -3.5258 2.99875 1 1
65 1 8.02286 4.45714 0.891429 0 0 0 1 2
66 1 8.00284 6.25898 2.6904 -3.27573 -4.18436 0.542592 1 1
67 1 8.91429 5.34857 0 0 0 0 1 3
68 1 9.81801 4.4788 2.74719 -7.09378 -3.13562 -7.30108 1 1
69 1 9.80572 6.24 0.891429 0 0 0 1 2
70 1 10.6789 5.39052 1.80198 -1.83692 4.59171 -5.15076 1 1
71 1 12.4803 3.56458 1.80127 0.836878 5.13028 -6.21813 1 1
72 1 10.6971 3.56572 0 0 0 0 1 3
73 1 12.48 5.34857 0 0 0 0 1 3
74 1 11.5886 4.45714 0.891429 0 0 0 1 2
75 1 11.5781 6.26582 2.70847 -2.93425 9.1836 -2.48679 1 1
76 1 13.3441 4.48249 2.71611 -8.75686 -0.75276 2.08527 1 1
77 1 13.3714 6.24 0.891429 0 0 0 1 2
78 1 14.2144 5.33112 1.78343 0.300522 2.04586 -0.187873 1 1
79 1 16.0461 3.53586 1.78774 7.88905 1.53407 2.78378 1 1
80 1 14.2629 3.56572 0 0 0 0 1 3
81 1 16.0457 5.34857 0 0 0 0 1 3
82 1 15.1543 4.45714 0.891429 0 0 0 1 2
83 1 15.1485 6.20574 2.70108 -0.0757684 1.61581 -1.62435 1 1
84 1 16.9136 4.44383 2.71968 -2.02456 8.79382 -2.65092 1 1
85 1 16.9371 6.24 0.891429 0 0 0 1 2
86 1 17.8489 5.33327 1.81514 -0.54897 -10.8665 -4.60619 1 1
87 1 19.6192 3.58526 1.77937 -1.69681 -0.580815 -5.57923 1 1
88 1 -0.0252688 5.40944 1.79788 -0.961882 -8.44172 0.938273 1 1
89 1 17.8286 3.56572 0 0 0 0 1 3
90 1 19.6114 5.34857 0 0 0 0 1 3
91 1 18.72 4.45714 0.891429 0 0 0 1 2
92 1 18.7691 6.23578 2.72128 -4.21309 -0.912005 -6.19925 1 1
93 1 20.5088 4.48017 2.68206 0.652182 -3.46201 3.87173 1 1
94 1 20.5029 6.24 0.891429 0 0 0 1 2
95 1 19.6559 7.16411 1.82111 4.61893 -11.6268 1.90472 1 1
96 1 1.82653 7.16327 1.79981 -2.69001 -1.92938 -5.52283 1 1
97 1 0 7.13143 0 0 0 0 1 3
98 1 0.891429 8.02286 0.891429 0 0 0 1 2
99 1 2.72121 8.02495 2.70534 1.31556 0.837421 -1.84709 1 1
100 1 1.78286 8.91429 0 0 0 0 1 3
101 1 0.876343 9.82157 2.67522 3.37523 0.863102 -9.57547 1 1
102 1 2.67429 9.80572 0.891429 0 0 0 1 2
103 1 1.78198 10.7504 1.78227 0.513953 -1.64605 -0.0200945 1 1
104 1 3.56242 8.91634 1.78844 6.23729 0.623919 -3.44635 1 1
105 1 3.56572 7.13143 0 0 0 0 1 3
106 1 4.45714 8.02286 0.891429 0 0 0 1 2
107 1 6.24216 8.05445 2.70248 -4.48312 -8.02848 1.80949 1 1
108 1 5.34857 8.91429 0 0 0 0 1 3
109 1 4.43362 9.80238 2.6397 -3.71106 -3.08475 -2.09611 1 1
110 1 6.24 9.80572 0.891429 0 0 0 1 2
111 1 7.09989 8.89749 1.76682 1.74948 -4.24394 9.25749 1 1
112 1 8.86895 7.1456 1.7554 1.48648 -0.607689 -2.67314 1 1
113 1 7.13143 7.13143 0 0 0 0 1 3
114 1 8.02286 8.02286 0.891429 0 0 0 1 2
115 1 9.81858 8.01365 2.65677 -4.46896 -7.01773 -2.82319 1 1
116 1 7.99841 9.80829 2.70019 0.460997 0.470643 -3.70119 1 1
117 1 8.91429 8.91429 0 0 0 0 1 3
118 1 9.80572 9.80572 0.891429 0 0 0 1 2
119 1 10.7205 8.92799 1.78929 -6.90281 7.96888 5.66377 1 1
120 1 12.4453 7.13954 1.81223 1.2702 4.85515 6.90618 1 1
121 1 10.6971 7.13143 0 0 0 0 1 3
122 1 11.5886 8.02286 0.891429 0 0 0 1 2
123 1 13.357 8.00126 2.70371 -6.50085 0.850456 5.21787 1 1
124 1 12.48 8.91429 0 0 0 0 1 3
125 1 11.5974 9.84595 2.73099 2.14354 -2.76604 -10.2287 1 1
126 1 13.3714 9.80572 0.891429 0 0 0 1 2
127 1 12.463 10.6597 1.79037 -4.49623 1.44691 -0.484102 1 1
128 1 16.0272 7.12514 1.8086 6.76266 7.02706 2.41997 1 1
129 1 14.2113 8.92493 1.84466 8.38404 1.91687 -1.11659 1 1
130 1 14.2629 7.13143 0 0 0 0 1 3
131 1 15.1543 8.02286 0.891429 0 0 0 1 2
132 1 16.9573 7.97133 2.71756 7.91952 1.44182 1.238 1 1
133 1 16.0457 8.91429 0 0 0 0 1 3
134 1 15.1902 9.7868 2.70103 -1.1928 -4.3179 -3.12527 1 1
135 1 16.9371 9.80572 0.891429 0 0 0 1 2
136 1 16.0656 10.6762 1.7706 -3.15867 0.692317 2.50032 1 1
137 1 17.8103 8.90444 1.79995 1.37096 0.162228 -0.959406 1 1
138 1 21.3898 8.95475 1.78234 3.68345 -5.02389 2.15465 1 1
139 1 17.8286 7.13143 0 0 0 0 1 3
140 1 18.72 8.02286 0.891429 0 0 0 1 2
141 1 20.5188 8.06211 2.72293 4.85191 2.82301 0.0141315 1 1
142 1 19.6114 8.91429 0 0 0 0 1 3
143 1 18.6968 9.80213 2.73131 -2.16048 -4.86319 -8.01029 1 1
144 1 20.5029 9.80572 0.891429 0 0 0 1 2
145 1 0 10.6971 0 0 0 0 1 3
146 1 1.78286 12.48 0 0 0 0 1 3
147 1 0.891429 11.5886 0.891429 0 0 0 1 2
148 1 2.65609 11.6256 2.67637 0.813315 0.0596757 5.38301 1 1
149 1 0.931005 13.3587 2.6991 11.3626 -10.3392 -2.68234 1 1
150 1 2.67429 13.3714 0.891429 0 0 0 1 2
151 1 21.4315 12.4997 1.81038 4.9372 -2.90449 4.20538 1 1
152 1 5.35348 10.7171 1.75702 2.11721 -2.70864 2.83603 1 1
153 1 3.5735 12.503 1.79126 -0.107172 -0.879413 -12.1962 1 1
154 1 3.56572 10.6971 0 0 0 0 1 3
155 1 5.34857 12.48 0 0 0 0 1 3
156 1 4.45714 11.5886 0.891429 0 0 0 1 2
157 1 6.23471 11.5996 2.68354 3.23878 5.97277 -7.73679 1 1
158 1 4.46094 13.3868 2.6677 2.91991 -5.36281 -2.20991 1 1
159 1 6.24 13.3714 0.891429 0 0 0 1 2
160 1 5.34162 14.2445 1.77824 -5.24528 3.99706 -4.99562 1 1
161 1 8.91591 10.6919 1.78798 1.00044 2.29453 1.82192 1 1
162 1 7.14077 12.4803 1.78394 2.70212 -2.04016 7.0554 1 1
163 1 7.13143 10.6971 0 0 0 0 1 3
164 1 8.02286 11.5886 0.891429 0 0 0 1 2
165 1 8.91429 12.48 0 0 0 0 1 3
166 1 9.84425 11.6111 2.673 -0.0249925 -6.17515 3.56614 1 1
167 1 8.017 13.3953 2.67002 2.20528 -4.20065 5.54489 1 1
168 1 9.80572 13.3714 0.891429 0 0 0 1 2
169 1 10.7225 12.4964 1.76174 -0.0813354 2.92967 -3.04118 1 1
170 1 10.6971 10.6971 0 0 0 0 1 3
171 1 12.48 12.48 0 0 0 0 1 3
172 1 11.5886 11.5886 0.891429 0 0 0 1 2
173 1 13.3792 11.6028 2.69073 -3.62644 1.92797 0.457039 1 1
174 1 11.6097 13.4115 2.72158 3.90055 9.88043 6.16739 1 1
175 1 13.3714 13.3714 0.891429 0 0 0 1 2
176 1 12.4911 14.2948 1.81314 5.25373 1.3257 -1.10192 1 1
177 1 14.2462 12.4826 1.78945 0.324398 0.353477 -2.80929 1 1
178 1 14.2629 10.6971 0 0 0 0 1 3
179 1 16.0457 12.48 0 0 0 0 1 3
180 1 15.1543 11.5886 0.891429 0 0 0 1 2
181 1 16.9266 11.5666 2.74295 -4.60575 -2.35026 5.48388 1 1
182 1 15.1568 13.3139 2.71065 0.33764 0.116402 -8.02747 1 1
183 1 16.9371 13.3714 0.891429 0 0 0 1 2
184 1 17.8227 12.4331 1.81155 -7.31059 3.22273 -1.55311 1 1
185 1 19.5634 10.7338 1.76443 -4.64668 -0.741063 -5.67862 1 1
186 1 17.8286 10.6971 0 0 0 0 1 3
187 1 19.6114 12.48 0 0 0 0 1 3
188 1 18.72 11.5886 0.891429 0 0 0 1 2
189 1 20.4575 11.5728 2.70473 9.40406 -4.86883 0.758136 1 1
190 1 18.7081 13.3774 2.71063 -2.3666 -0.117258 4.29615 1 1
191 1 20.5029 13.3714 0.891429 0 0 0 1 2
192 1 19.5813 14.2143 1.78002 3.39482 0.387754 8.95799 1 1
193 1 1.78594 14.2609 1.73966 5.06027 -0.0769414 -3.30537 1 1
194 1 0 14.2629 0 0 0 0 1 3
195 1 1.78286 16.0457 0 0 0 0 1 3
196 1 0.891429 15.1543 0.891429 0 0 0 1 2
197 1 0.87733 16.9061 2.63814 5.14537 -10.3958 -7.21136 1 1
198 1 2.68907 15.123 2.65993 -2.1654 4.80126 3.41799 1 1
199 1 2.67429 16.9371 0.891429 0 0 0 1 2
200 1 21.4022 16.0355 1.75315 1.04166 4.19 -1.10347 1 1
201 1 3.58967 16.0083 1.75988 -2.54208 2.3761 -1.3643 1 1
202 1 3.56572 14.2629 0 0 0 0 1 3
203 1 5.34857 16.0457 0 0 0 0 1 3
204 1 4.45714 15.1543 0.891429 0 0 0 1 2
205 1 4.44452 16.9387 2.64366 0.346601 -3.99199 7.43028 1 1
206 1 6.2307 15.1487 2.67106 -12.3484 -1.05471 3.18778 1 1
207 1 6.24 16.9371 0.891429 0 0 0 1 2
208 1 7.11466 16.0137 1.80385 -3.28369 -6.68134 3.04664 1 1
209 1 5.38084 17.8437 1.77086 -3.30908 -1.42305 -2.91323 1 1
210 1 8.95278 14.2871 1.78406 0.914418 1.63586 2.49856 1 1
211 1 7.13143 14.2629 0 0 0 0 1 3
212 1 8.02286 15.1543 0.891429 0 0 0 1 2
213 1 8.02605 16.9367 2.73714 4.68917 1.11452 -3.1707 1 1
214 1 8.91429 16.0457 0 0 0 0 1 3
215 1 9.81349 15.2032 2.69434 -3.96561 5.85936 -5.90126 1 1
216 1 9.80572 16.9371 0.891429 0 0 0 1 2
217 1 8.90173 17.7995 1.794 -5.94174 -0.372786 7.63995 1 1
218 1 10.6993 16.0875 1.79649 3.43388 -2.92675 -7.92582 1 1
219 1 10.6971 14.2629 0 0 0 0 1 3
220 1 12.48 16.0457 0 0 0 0 1 3
221 1 11.5886 15.1543 0.891429 0 0 0 1 2
222 1 11.5657 16.998 2.69687 -2.51321 -1.11416 -3.36336 1 1
223 1 13.4154 15.1153 2.66252 2.63552 -6.73256 -3.0538 1 1
224 1 13.3714 16.9371 0.891429 0 0 0 1 2
225 1 12.5106 17.8481 1.77788 1.68579 -2.1388 6.10825 1 1
226 1 16.0709 14.2235 1.7944 -1.92138 -2.19388 -10.1296 1 1
227 1 14.2723 16.044 1.80668 -7.17544 -0.853573 -5.71061 1 1
228 1 14.2629 14.2629 0 0 0 0 1 3
229 1 16.0457 16.0457 0 0 0 0 1 3
230 1 15.1543 15.1543 0.891429 0 0 0 1 2
231 1 15.159 16.941 2.66567 5.63293 -2.86195 -2.06797 1 1
232 1 16.8902 15.1488 2.73434 -1.46288 1.63551 9.57597 1 1
233 1 16.9371 16.9371 0.891429 0 0 0 1 2
234 1 17.8332 16.0606 1.77879 -0.145977 -8.38088 0.190054 1 1
235 1 17.8286 14.2629 0 0 0 0 1 3
236 1 19.6114 16.0457 0 0 0 0 1 3
237 1 18.72 15.1543 0.891429 0 0 0 1 2
238 1 18.7406 16.9508 2.67414 3.32991 1.85085 -0.349579 1 1
239 1 20.4877 15.1379 2.67512 3.9483 -3.75045 -12.3428 1 1
240 1 20.5029 16.9371 0.891429 0 0 0 1 2
241 1 19.6132 17.8175 1.79502 -1.67689 -7.5681 2.84729 1 1
242 1 1.81881 17.8148 1.77181 -0.540855 -4.01808 -4.54987 1 1
243 1 0 17.8286 0 0 0 0 1 3
244 1 1.78286 19.6114 0 0 0 0 1 3
245 1 0.891429 18.72 0.891429 0 0 0 1 2
246 1 0.855965 20.524 2.68139 -0.0163504 3.98287 -0.945389 1 1
247 1 2.71539 18.7013 2.65131 7.63434 1.01058 -2.65329 1 1
248 1 2.67429 20.5029 0.891429 0 0 0 1 2
249 1 3.54185 19.6019 1.76645 0.187596 -6.31787 -8.98095 1 1
250 1 21.4142 19.6232 1.79183 1.22944 0.0485497 3.39244 1 1
251 1 5.32377 0.00741873 1.83985 2.47166 -9.50653 0.179629 1 1
252 1 3.56572 17.8286 0 0 0 0 1 3
253 1 5.34857 19.6114 0 0 0 0 1 3
254 1 4.45714 18.72 0.891429 0 0 0 1 2
255 1 4.44114 20.5266 2.67509 0.493746 -0.138215 -5.3925 1 1
256 1 6.29412 18.7616 2.70991 -1.54573 3.46451 0.91597 1 1
257 1 6.24 20.5029 0.891429 0 0 0 1 2
258 1 7.17022 19.6162 1.80683 0.620159 4.30473 0.886317 1 1
259 1 7.13143 17.8286 0 0 0 0 1 3
260 1 8.02286 18.72 0.891429 0 0 0 1 2
261 1 8.05365 20.5097 2.7197 1.23065 4.79114 -3.93175 1 1
262 1 8.91429 19.6114 0 0 0 0 1 3
263 1 9.78256 18.7333 2.70256 0.161791 4.66333 -0.675385 1 1
264 1 9.80572 20.5029 0.891429 0 0 0 1 2
265 1 10.7157 19.6094 1.83336 0.526275 -2.35521 1.57481 1 1
266 1 12.4322 21.4233 1.81 -2.71169 1.89659 -6.80529 1 1
267 1 10.6971 17.8286 0 0 0 0 1 3
268 1 12.48 19.6114 0 0 0 0 1 3
269 1 11.5886 18.72 0.891429 0 0 0 1 2
270 1 11.6182 20.4971 2.73212 -0.388586 -3.82776 -4.03094 1 1
271 1 13.3828 18.7402 2.68662 -4.97856 8.83479 3.48051 1 1
272 1 13.3714 20.5029 0.891429 0 0 0 1 2
273 1 14.2594 19.6459 1.83473 -2.24942 -1.61023 -1.8452 1 1
274 1 16.0384 17.831 1.80458 -1.89329 9.54078 -2.0626 1 1
275 1 14.2629 17.8286 0 0 0 0 1 3
276 1 16.0457 19.6114 0 0 0 0 1 3
277 1 15.1543 18.72 0.891429 0 0 0 1 2
278 1 15.1473 20.5525 2.76131 -0.377115 -2.37468 0.314651 1 1
279 1 16.9468 18.7604 2.69999 3.41951 -0.586397 3.57073 1 1
280 1 16.9371 20.5029 0.891429 0 0 0 1 2
281 1 19.6828 21.4204 1.78107 -1.3566 6.40364 1.36437 1 1
282 1 17.8053 19.6424 1.78252 3.69424 -4.76177 -1.12675 1 1
283 1 17.8286 17.8286 0 0 0 0 1 3
284 1 19.6114 19.6114 0 0 0 0 1 3
285 1 18.72 18.72 0.891429 0 0 0 1 2
286 1 18.7545 20.5231 2.70303 -1.66621 -1.57266 4.21134 1 1
287 1 20.4555 18.7311 2.71109 3.55151 1.10886 1.14756 1 1
288 1 20.5029 20.5029 0.891429 0 0 0 1 2
289 1 1.78866 1.79872 3.57049 4.17865 -7.35123 -0.347017 1 1
290 1 0.925991 0.910934 4.49985 -1.32147 2.35726 -3.44216 1 1
291 1 2.65518 2.66739 4.50028 2.93673 -0.331679 2.5092 1 1
292 1 1.79655 0.0352706 5.38672 -5.03831 -1.59239 3.00007 1 1
293 1 1.76578 3.56168 5.40728 -7.5271 7.39225 -0.165601 1 1
294 1 -0.00679679 1.73561 5.35261 -6.45558 -4.16787 3.45458 1 1
295 1 21.3993 21.4177 3.56587 6.46689 10.2642 -8.56618 1 1
296 1 3.51018 1.76865 5.33315 2.46284 -14.2816 -2.05542 1 1
297 1 5.32692 1.83325 3.60006 -2.51457 9.99201 -3.67581 1 1
298 1 4.437 0.917116 4.45809 -1.38928 -4.54729 -7.70902 1 1
299 1 6.18528 0.861152 6.26871 1.68764 -7.3981 1.29335 1 1
300 1 6.23836 2.67059 4.43275 7.04204 9.5815 1.20803 1 1
301 1 3.53994 0.0417987 3.59211 -2.85729 2.15714 3.05916 1 1
302 1 7.10846 21.3922 3.5727 2.71238 -0.691056 -4.33482 1 1
303 1 5.31322 0.00126928 5.41885 2.05961 0.737932 1.21317 1 1
304 1 7.12718 3.56162 3.57871 -0.375926 -0.926305 -5.22431 1 1
305 1 7.13621 1.78024 5.33321 3.0617 0.47254 0.637996 1 1
306 1 8.94088 1.7803 3.59667 2.60914 -2.14185 0.46969 1 1
307 1 8.02907 0.868992 4.47464 3.85008 1.4877 -2.97882 1 1
308 1 8.00557 2.66868 6.29262 4.91349 4.90192 3.05787 1 1
309 1 9.8176 0.886227 6.30431 8.98938 -3.6609 -0.333773 1 1
310 1 9.83669 2.6613 4.48982 -4.35225 1.33943 2.62122 1 1
311 1 10.6992 1.75411 5.39576 0.272185 7.37558 -0.173881 1 1
312 1 12.4731 1.8089 3.55315 0.453228 -0.2012 -1.87564 1 1
313 1 11.6003 0.901881 4.48651 -0.857347 2.81266 -3.78966 1 1
314 1 11.6058 2.67749 6.28019 -3.72231 5.62666 -2.78326 1 1
315 1 13.3638 2.66733 4.51113 -1.88317 1.82354 -7.91912 1 1
316 1 13.375 0.880709 6.239 0.0347898 -0.11315 -11.1927 1 1
317 1 12.4374 3.63425 5.35108 15.3776 5.28121 -7.1382 1 1
318 1 14.2406 1.75123 5.37732 5.74194 -1.16497 2.42614 1 1
319 1 12.4959 21.3894 5.3759 0.98943 0.585651 -4.68077 1 1
320 1 14.2393 3.54723 3.58208 1.12857 -3.32712 -5.23756 1 1
321 1 16.0212 1.80953 3.56454 0.626938 -0.548708 -6.26361 1 1
322 1 15.1786 0.928597 4.48323 -4.78984 6.27748 2.27803 1 1
323 1 15.1626 2.68105 6.29466 -3.78174 -0.76282 4.83687 1 1
324 1 16.9738 2.70056 4.4901 -2.3705 -1.8633 4.41893 1 1
325 1 17.847 1.78257 5.3658 6.31929 -6.06626 1.53358 1 1
326 1 16.0572 21.4118 5.35558 2.65154 7.29475 -0.282881 1 1
327 1 19.5951 1.83302 3.58247 -3.93782 1.61448 -1.75591 1 1
328 1 18.7293 0.926427 4.44131 -0.743297 9.02011 -1.62633 1 1
329 1 20.512 2.68673 4.52231 -3.10646 -13.9171 1.44607 1 1
330 1 17.8719 0.0295918 3.57861 9.62058 -0.73779 2.55611 1 1
331 1 19.6291 21.3568 5.32073 -2.76826 0.966268 4.27548 1 1
332 1 -0.0368911 3.57696 3.58752 -2.09224 1.68828 -9.21997 1 1
333 1 1.77675 5.37232 3.58422 1.19871 6.07683 3.55803 1 1
334 1 0.873241 4.45761 4.47291 -0.187817 -7.62273 -4.55288 1 1
335 1 2.6639 4.48164 6.26466 0.891157 -0.10996 -5.74011 1 1
336 1 2.63881 6.22498 4.45018 3.79233 6.67524 0.466724 1 1
337 1 3.53255 3.57356 3.6007 -4.58472 -0.95165 -5.05652 1 1
338 1 0.0113869 5.33519 5.39001 2.22685 7.2251 1.76717 1 1
339 1 3.54747 5.34293 5.34789 5.70704 3.73122 -1.10859 1 1
340 1 5.36855 3.54691 5.3574 7.60364 -2.39875 -3.84559 1 1
341 1 5.34239 5.30664 3.57209 2.2184 1.5394 -7.16455 1 1
342 1 4.47347 4.40792 4.46324 -15.2286 2.88007 0.163011 1 1
343 1 4.48016 6.25674 6.25675 0.971898 0.369513 -1.80476 1 1
344 1 6.2247 6.24091 4.456 -5.90455 -2.57914 -2.99757 1 1
345 1 7.11523 5.31342 5.36729 -2.45376 -6.2826 -3.07136 1 1
346 1 5.34054 7.14767 5.38703 -1.18824 4.01036 1.23791 1 1
347 1 6.20003 4.42768 6.25049 -5.43238 -3.47541 -2.03471 1 1
348 1 8.93522 3.59225 5.38291 -0.376362 2.65104 4.65183 1 1
349 1 10.7056 3.56338 3.58123 8.85015 -0.160568 4.64133 1 1
350 1 8.91147 5.39195 3.62597 5.99559 -5.1336 -1.42837 1 1
351 1 8.02264 4.47783 4.50782 1.91385 -1.45864 -4.12329 1 1
352 1 7.99397 6.23795 6.24698 5.51465 0.193074 5.65801 1 1
353 1 9.84134 4.46218 6.27882 -2.86457 1.88226 -2.37374 1 1
354 1 9.77038 6.27082 4.52595 7.0462 -5.19817 6.61581 1 1
355 1 10.662 5.36975 5.37766 0.787402 2.47847 2.48836 1 1
356 1 12.4892 5.35872 3.611 0.328702 -3.36459 5.03995 1 1
357 1 11.5497 4.52565 4.46269 2.66197 -0.322253 -2.90409 1 1
358 1 13.3549 6.2269 4.49406 -5.27156 -2.23312 0.538207 1 1
359 1 14.2404 5.34963 5.35611 -1.67044 -5.03779 -1.83504 1 1
360 1 15.9961 3.55069 5.4131 -2.56014 7.33356 2.81179 1 1
361 1 17.86 3.56415 3.59934 -4.18599 -4.93977 1.78383 1 1
362 1 15.9802 5.31303 3.62345 -1.22605 -6.59055 -3.31369 1 1
363 1 15.1186 4.4088 4.50835 -2.9819 -9.98926 8.61542 1 1
364 1 16.9197 6.2301 4.52865 -5.26714 -10.0982 -7.97442 1 1
365 1 16.8942 4.41342 6.30238 -1.69456 5.40842 -1.8847 1 1
366 1 16.0262 7.09755 5.41851 11.6661 -9.03991 3.15841 1 1
367 1 15.1055 6.22839 6.26931 1.30677 -0.302308 -0.85709 1 1
368 1 19.6464 3.59426 5.40245 -2.28954 2.33477 -12.3613 1 1
369 1 17.8198 5.36521 5.4095 -2.93246 2.26645 -2.97 1 1
370 1 19.6366 5.36691 3.57794 7.27006 1.36964 -6.06046 1 1
371 1 18.7151 4.44919 4.50508 -2.43443 0.714952 3.81855 1 1
372 1 20.4996 4.48322 6.32975 -2.50036 -1.25505 -0.371798 1 1
373 1 20.5422 6.23966 4.49668 1.76122 -0.663693 -9.70834 1 1
374 1 19.6406 7.0702 5.38352 6.21939 2.96874 -0.692846 1 1
375 1 21.4368 7.19421 3.59636 2.62378 -7.12667 -5.79005 1 1
376 1 1.80553 7.15772 5.40725 -0.00576059 3.71804 2.19426 1 1
377 1 1.77506 8.91114 3.61031 1.14094 -4.77247 4.03261 1 1
378 1 0.902719 8.02242 4.50638 -1.44646 0.320265 -8.96995 1 1
379 1 2.67237 8.00892 6.25006 -3.53872 3.15188 -6.78874 1 1
380 1 0.899566 9.8061 6.26794 2.05395 3.90838 -5.94014 1 1
381 1 2.71437 9.8528 4.44091 -2.19522 1.68359 -10.7557 1 1
382 1 21.3841 8.8953 5.39674 -1.76721 -5.2022 -0.498794 1 1
383 1 1.77181 10.6823 5.37668 -3.19451 0.835446 -2.09278 1 1
384 1 3.56522 7.10529 3.54528 -1.08275 -2.85727 -3.37407 1 1
385 1 7.04328 7.12513 3.55412 1.6297 -11.1586 0.339806 1 1
386 1 3.55265 10.7242 3.56863 -0.953376 -0.249595 1.36248 1 1
387 1 3.53636 8.9202 5.40336 -6.5426 3.83574 2.95689 1 1
388 1 5.35071 8.93186 3.61439 1.36994 9.55094 6.16255 1 1
389 1 4.47238 8.05909 4.46761 1.92526 -3.25315 13.6679 1 1
390 1 4.41794 9.81628 6.26837 0.181953 3.07579 -0.602945 1 1
391 1 6.21974 9.83291 4.46387 4.38387 -1.99527 -0.216718 1 1
392 1 8.8733 7.11332 5.36365 3.47123 -4.00912 1.68828 1 1
393 1 7.1089 8.96365 5.38353 7.12169 0.482343 -0.6793 1 1
394 1 8.94287 8.90538 3.58416 6.38455 -5.07449 3.51886 1 1
395 1 8.00005 8.00267 4.44594 0.711122 0.243825 6.10117 1 1
396 1 9.81514 9.83804 4.52161 -3.7295 -1.65265 3.11168 1 1
397 1 10.6596 8.92483 5.39079 0.432992 -0.444008 -2.42392 1 1
398 1 10.72 10.738 3.59924 -10.2153 3.89946 -6.73188 1 1
399 1 9.71702 8.00635 6.24663 3.67822 -1.70056 -5.20693 1 1
400 1 12.5195 7.1421 5.42801 0.86525 -2.69351 -6.81914 1 1
401 1 10.6355 7.15094 3.57351 -1.29613 -2.81218 3.2374 1 1
402 1 12.4989 8.90142 3.6078 -4.03079 4.22147 0.267739 1 1
403 1 11.5259 8.01675 4.50282 -1.60643 -4.13918 -7.66262 1 1
404 1 13.3428 9.79196 4.52181 -8.27758 1.16175 2.72998 1 1
405 1 14.2561 7.11184 3.57413 -3.52328 -10.5986 0.0401547 1 1
406 1 14.2626 8.89067 5.36806 7.09174 4.95398 4.18905 1 1
407 1 17.8094 7.14839 3.65206 2.09474 -7.94536 7.08089 1 1
408 1 16.0278 8.88214 3.59198 2.03369 -5.94414 -4.20807 1 1
409 1 15.1664 7.99302 4.52127 1.50214 5.45667 6.35895 1 1
410 1 16.8948 9.73591 4.49221 -1.69579 8.02766 -5.91542 1 1
411 1 16.0531 10.6148 5.41297 -1.02554 3.69607 0.816793 1 1
412 1 16.9398 7.99254 6.27277 2.24876 -1.33964 -3.85975 1 1
413 1 17.8178 8.87076 5.41944 14.2433 -0.504738 3.62921 1 1
414 1 19.6306 8.90043 3.62868 4.49722 2.09759 -4.5914 1 1
415 1 18.7333 8.01595 4.53134 1.27583 4.9876 -2.89771 1 1
416 1 18.7281 9.83073 6.31246 11.8417 -4.03576 -2.27938 1 1
417 1 20.4509 9.77726 4.51537 7.07686 -6.3146 4.76004 1 1
418 1 20.4973 7.96671 6.29668 -2.2856 5.49041 -2.97336 1 1
419 1 19.6163 10.7147 5.38976 -0.41215 -5.3358 2.1032 1 1
420 1 21.3485 10.7122 3.61073 -0.407987 -12.2724 5.2195 1 1
421 1 1.83435 12.4798 3.55325 -2.4542 5.47226 -0.226145 1 1
422 1 0.880969 11.5726 4.46236 -2.64659 2.33717 -6.77838 1 1
423 1 2.72631 11.5759 6.27148 1.94509 5.56902 -7.55145 1 1
424 1 0.877333 13.3665 6.2538 6.41107 1.63394 0.202941 1 1
425 1 2.68175 13.3905 4.47547 -1.18299 3.73524 5.56933 1 1
426 1 21.4017 12.4605 5.34126 0.541619 1.19454 -9.90595 1 1
427 1 5.31271 10.7135 5.34897 4.95788 0.730458 3.5878 1 1
428 1 3.57697 14.2531 3.59429 -0.205008 -12.0117 -5.5202 1 1
429 1 3.58857 12.4455 5.3275 3.67382 -1.91824 -8.29605 1 1
430 1 5.33077 12.5143 3.56959 1.36846 -6.79597 -7.56609 1 1
431 1 4.48226 11.5909 4.42242 3.90173 1.04472 -2.06457 1 1
432 1 6.24986 13.4031 4.4447 -2.93299 3.53821 -7.89917 1 1
433 1 7.14918 14.2643 3.59646 -3.91105 -1.52633 3.41265 1 1
434 1 6.21516 11.609 6.23614 0.695572 10.1433 -1.33336 1 1
435 1 7.09917 10.6622 3.56665 -4.64057 1.10341 -8.65834 1 1
436 1 7.08129 12.4809 5.39012 4.63889 6.58455 -1.882 1 1
437 1 8.8529 10.7291 5.37126 -7.2148 0.315044 -9.69124 1 1
438 1 8.88184 12.5123 3.55846 5.33791 1.8496 -1.60989 1 1
439 1 8.02251 11.6231 4.47604 2.54167 7.0523 6.48364 1 1
440 1 9.78645 11.6168 6.27004 -1.46988 3.53922 -6.56479 1 1
441 1 8.0048 13.4087 6.2411 9.5274 -1.74695 2.77243 1 1
442 1 9.80348 13.364 4.44213 1.76064 -1.30612 -8.70673 1 1
443 1 10.7048 14.3056 3.56043 -5.52643 2.23078 -5.16058 1 1
444 1 12.4812 10.7169 5.37788 -8.48502 5.85785 -0.532849 1 1
445 1 10.714 12.4977 5.40878 -3.15822 -3.2493 13.4675 1 1
446 1 12.4734 12.5272 3.5738 -4.71732 1.20268 -3.77663 1 1
447 1 11.6333 11.6289 4.51803 0.206925 9.24869 -0.816677 1 1
448 1 13.3818 11.5932 6.25284 9.12379 4.17037 -3.22415 1 1
449 1 11.5294 13.3924 6.32563 3.97792 -3.16818 3.83382 1 1
450 1 13.3645 13.3606 4.50547 -4.72144 -3.27907 3.08291 1 1
451 1 14.2779 10.6825 3.61882 -3.84102 3.86883 2.00023 1 1
452 1 14.2622 12.4572 5.35595 8.69111 2.76757 5.17279 1 1
453 1 16.0127 12.4288 3.57703 0.977062 -2.22405 0.56794 1 1
454 1 15.1838 11.5253 4.50481 -1.25123 -1.37136 0.253869 1 1
455 1 16.8917 11.5218 6.26565 -1.34984 -2.2999 -6.6237 1 1
456 1 16.9508 13.3527 4.48344 -4.45112 -6.97885 0.70014 1 1
457 1 17.8553 12.4464 5.39973 -5.4543 1.1533 -1.64717 1 1
458 1 15.1345 13.3505 6.26 -1.75471 6.12183 -3.79559 1 1
459 1 17.8216 10.6922 3.62155 2.6937 7.57109 -2.47862 1 1
460 1 19.5744 12.4816 3.57506 -0.283978 -0.382273 1.52809 1 1
461 1 18.7403 11.5405 4.51495 6.07085 -1.93971 0.769112 1 1
462 1 18.7024 13.3811 6.25807 1.59999 -7.88549 -0.382391 1 1
463 1 20.4516 13.3645 4.43888 2.82584 1.26235 3.05559 1 1
464 1 20.5008 11.613 6.23716 -1.81667 2.1814 3.81319 1 1
465 1 1.79659 14.2282 5.38658 1.84641 1.54593 3.34036 1 1
466 1 1.78339 15.9963 3.56958 -1.75257 -6.58329 5.19466 1 1
467 1 0.909273 15.0797 4.46828 3.65132 8.04985 -2.64772 1 1
468 1 2.65234 15.1192 6.24371 2.07181 -1.81868 -2.41732 1 1
469 1 2.64962 16.9228 4.47249 -0.477436 2.77484 -3.16355 1 1
470 1 -0.00364594 16.0507 5.37074 -6.36878 0.286443 -4.69217 1 1
471 1 0.00795671 14.2376 3.56665 -3.60328 7.71885 -2.59342 1 1
472 1 1.79828 17.8424 5.32882 2.35465 8.3808 -0.386569 1 1
473 1 5.35014 14.2431 5.33335 -7.96383 10.2589 3.25416 1 1
474 1 3.52028 16.0212 5.35182 0.778594 1.11602 -2.86161 1 1
475 1 5.35707 16.0683 3.56143 0.675941 -2.60381 -3.30497 1 1
476 1 4.44399 15.1782 4.46254 4.01917 -3.54638 -5.51823 1 1
477 1 4.41332 16.9013 6.25175 5.26552 -6.90821 -3.41463 1 1
478 1 6.25547 15.1037 6.26153 -1.43295 12.2208 5.30688 1 1
479 1 6.23865 16.9436 4.47684 -9.43485 -5.30583 2.70751 1 1
480 1 7.13457 16.0551 5.35616 2.34349 5.74019 6.39347 1 1
481 1 8.94594 14.2693 5.35271 -0.395658 -0.984379 -5.54259 1 1
482 1 8.94738 16.0788 3.57173 -3.44827 -6.24846 5.59734 1 1
483 1 8.02037 15.1755 4.44717 -0.820593 -2.01884 6.49699 1 1
484 1 7.91273 16.9415 6.27781 -2.52741 -5.85685 -0.812231 1 1
485 1 9.76931 15.159 6.26258 -7.14983 1.31592 3.66015 1 1
486 1 9.7925 16.9647 4.46728 0.778343 1.8604 -2.17393 1 1
487 1 10.6511 16.0324 5.35892 -6.04856 0.825111 2.84113 1 1
488 1 8.89076 17.8349 5.39526 -2.47502 -2.11882 -1.62101 1 1
489 1 10.6734 17.8471 3.6252 -1.04805 -2.75057 -2.54265 1 1
490 1 12.4461 14.2523 5.38818 -6.36315 -1.71568 0.727237 1 1
491 1 12.4871 16.0292 3.59531 -1.42697 -1.18139 -5.21728 1 1
492 1 11.5859 15.1553 4.47067 -6.00252 8.81798 2.85977 1 1
493 1 11.5584 16.9525 6.2599 -2.20027 -0.876993 0.705468 1 1
494 1 13.3837 16.9331 4.47701 0.631009 -5.06993 -2.82531 1 1
495 1 13.3551 15.1927 6.26372 13.7503 -0.39541 2.15526 1 1
496 1 12.4606 17.8613 5.37136 -3.95343 2.83654 -3.58282 1 1
497 1 14.2953 14.2397 3.58311 -5.02957 1.5141 -1.42403 1 1
498 1 16.045 14.2511 5.35441 -3.65741 2.29554 1.07652 1 1
499 1 17.7797 14.2866 3.58558 1.59318 -2.98034 1.54425 1 1
500 1 14.2405 16.0841 5.37516 1.92948 1.02987 -9.81563 1 1
501 1 14.2423 17.8298 3.5482 10.197 5.07683 -0.297102 1 1
502 1 16.0012 16.0801 3.58069 -5.73644 -0.560846 -0.455602 1 1
503 1 15.1404 15.1414 4.49778 -1.46915 -1.18123 -0.940881 1 1
504 1 16.8916 16.9447 4.46177 -3.17488 -1.95037 -3.24243 1 1
505 1 16.9098 15.1424 6.24322 3.38032 -2.62447 -1.39271 1 1
506 1 17.794 16.0535 5.36689 2.89333 1.06809 0.388665 1 1
507 1 19.5855 14.2884 5.38254 7.9281 -11.2717 2.31619 1 1
508 1 19.6222 16.0533 3.57327 -2.32633 4.06582 -0.837246 1 1
509 1 18.7124 15.188 4.46761 3.43269 -7.62601 -8.85701 1 1
510 1 20.4883 16.9239 4.46307 -1.12553 1.13647 -2.08347 1 1
511 1 19.6114 17.8069 5.34006 2.62749 -2.2208 -4.90716 1 1
512 1 20.4608 15.1387 6.25784 2.3347 -1.22509 -7.76515 1 1
513 1 1.77689 19.6104 3.55645 -2.23162 -2.77965 -4.80401 1 1
514 1 0.864569 18.6974 4.44583 4.00644 -2.36258 -11.6587 1 1
515 1 0.896589 20.4641 6.29752 3.21889 0.033415 -0.132832 1 1
516 1 2.65095 20.5519 4.46764 4.84755 -8.58244 1.57637 1 1
517 1 21.4101 17.7539 3.52459 4.51167 3.90031 3.41511 1 1
518 1 21.3881 19.5674 5.35151 -1.02615 3.41389 -0.627671 1 1
519 1 2.65569 18.7267 6.23942 -12.885 4.43372 3.55772 1 1
520 1 5.31695 17.8346 5.37214 4.56121 -7.59379 -1.0095 1 1
521 1 3.57406 17.8016 3.52488 0.312301 -0.390985 5.70884 1 1
522 1 3.55653 19.5776 5.33466 0.589061 -0.405578 -8.21852 1 1
523 1 5.28212 19.6304 3.64216 -3.0769 0.743262 -5.24889 1 1
524 1 4.42879 18.6867 4.51753 -1.62248 -6.26447 6.14825 1 1
525 1 4.41937 20.5 6.29645 -6.53724 -1.15006 -2.99948 1 1
526 1 6.20527 18.7497 6.24801 3.87836 -6.83705 2.27487 1 1
527 1 6.1798 20.5193 4.50075 -7.81886 2.46056 3.5156 1 1
528 1 7.1696 17.8918 3.55689 -8.4945 2.10175 -8.25603 1 1
529 1 7.15229 19.6482 5.38947 0.798013 -1.79801 0.374947 1 1
530 1 8.93167 21.382 5.37877 2.98545 5.6905 4.62736 1 1
531 1 8.91097 19.6238 3.58847 5.20422 6.68949 -2.83189 1 1
532 1 8.05322 18.7534 4.4922 -0.534223 -10.4761 7.99275 1 1
533 1 8.04031 20.5065 6.28034 -6.28218 1.57405 9.57288 1 1
534 1 9.76617 18.713 6.32167 1.08561 -2.94113 6.54932 1 1
535 1 9.7672 20.56 4.48754 2.29542 -1.76794 7.77827 1 1
536 1 10.6533 19.6365 5.39514 -0.691546 -4.10524 4.43753 1 1
537 1 10.6808 0.043644 3.58648 2.08708 -1.42428 -7.38726 1 1
538 1 12.472 19.6389 3.61721 7.55435 4.30267 9.22221 1 1
539 1 11.5739 18.7264 4.52438 -8.19991 1.5345 -1.46913 1 1
540 1 13.3357 18.7808 6.27967 -5.36208 -6.3534 -5.01079 1 1
541 1 13.4044 20.5298 4.4825 1.30618 -4.64373 2.33245 1 1
542 1 15.9871 17.8585 5.34076 2.83572 8.73387 4.09336 1 1
543 1 14.2989 0.0440422 3.64523 -4.58749 -3.87248 2.2847 1 1
544 1 14.2799 19.6457 5.34462 3.23289 2.55854 -0.373421 1 1
545 1 16.0349 19.6602 3.58878 -0.590453 0.265528 -1.54504 1 1
546 1 15.1685 18.7614 4.50718 5.76562 -4.17974 -2.61914 1 1
547 1 16.9317 18.6957 6.25756 4.55015 0.0349605 -4.00967 1 1
548 1 16.9326 20.5479 4.49539 -1.23469 0.204696 0.480699 1 1
549 1 17.8616 19.6478 5.37697 -2.28474 3.88117 -6.83455 1 1
550 1 17.818 17.8205 3.58386 -7.25031 0.207172 2.75775 1 1
551 1 19.6068 19.594 3.59527 -5.1629 -1.79383 -2.58471 1 1
552 1 18.6896 18.7396 4.49085 -4.62949 5.27951 -1.38426 1 1
553 1 18.728 20.5154 6.25121 2.76421 -4.92439 0.31917 1 1
554 1 20.5059 18.6766 6.24537 0.810284 -2.94461 -1.2292 1 1
555 1 20.4735 20.4841 4.43053 1.06024 -7.82293 3.96184 1 1