ITEM: TIMESTEP
1850
ITEM: NUMBER OF ATOMS
2952
ITEM: BOX BOUNDS pp pp mm
0.0000000000000000e+00 2.1394294200000001e+01
0.0000000000000000e+00 2.1394294200000001e+01
-4.4571446250000002e-01 5.3485735500000004e+01
ITEM: ATOMS id type x y z vx vy vz v_is_diamond c_structure_type
1 1 0 0 0 0 0 0 1 3
2 1 1.78286 1.78286 0 0 0 0 1 3
3 1 0.891429 0.891429 0.891429 0 0 0 1 2
4 1 0.865363 2.73271 2.70069 -4.67346 3.61633 9.02654 1 1
5 1 2.63475 0.89561 2.71124 -0.205637 -7.1965 0.244476 1 1
6 1 2.67429 2.67429 0.891429 0 0 0 1 2
7 1 21.3968 1.77617 1.81559 0.887586 0.80117 3.44115 1 1
8 1 1.7658 21.3897 1.77087 -5.45752 6.55045 1.95325 1 1
9 1 1.77437 3.56611 1.74739 -2.06196 2.10124 6.92606 1 1
10 1 3.54225 1.78379 1.79468 -4.54382 5.35324 -2.47719 1 1
11 1 3.56572 0 0 0 0 0 1 3
12 1 5.34857 1.78286 0 0 0 0 1 3
13 1 4.45714 0.891429 0.891429 0 0 0 1 2
14 1 4.45824 2.6327 2.68497 -0.304238 -3.80828 0.357545 1 1
15 1 6.29392 0.867121 2.68426 -3.46903 -3.14783 3.74382 1 1
16 1 6.24 2.67429 0.891429 0 0 0 1 2
17 1 7.15043 1.80776 1.79089 2.05209 -4.90397 0.115386 1 1
18 1 7.13143 0 0 0 0 0 1 3
19 1 8.02286 0.891429 0.891429 0 0 0 1 2
20 1 8.05651 2.70094 2.66736 -4.24527 7.18708 4.28163 1 1
21 1 8.91429 1.78286 0 0 0 0 1 3
22 1 9.78895 0.933589 2.69333 2.89022 -1.41334 -7.12882 1 1
23 1 9.80572 2.67429 0.891429 0 0 0 1 2
24 1 8.90102 21.425 1.7903 1.38462 6.33394 -5.76067 1 1
25 1 10.7203 1.76448 1.74936 -1.37828 2.30156 3.22309 1 1
26 1 10.6971 0 0 0 0 0 1 3
27 1 12.48 1.78286 0 0 0 0 1 3
28 1 11.5886 0.891429 0.891429 0 0 0 1 2
29 1 11.6107 2.66859 2.62141 3.81865 1.22123 8.14059 1 1
30 1 13.3673 0.923635 2.67949 8.89564 7.66586 2.80217 1 1
31 1 13.3714 2.67429 0.891429 0 0 0 1 2
32 1 14.2357 1.78768 1.77837 -1.57323 -0.572533 8.44857 1 1
33 1 14.2629 0 0 0 0 0 1 3
34 1 16.0457 1.78286 0 0 0 0 1 3
35 1 15.1543 0.891429 0.891429 0 0 0 1 2
36 1 15.1484 2.64533 2.70899 -4.92137 -2.94839 13.7939 1 1
37 1 16.9133 0.897555 2.68839 -2.99629 -17.6106 5.59349 1 1
38 1 16.9371 2.67429 0.891429 0 0 0 1 2
39 1 16.0557 0.00134781 1.81144 -0.502688 -0.457757 -2.38165 1 1
40 1 17.838 1.78255 1.7792 -0.0570217 3.76681 0.151992 1 1
41 1 17.8286 0 0 0 0 0 1 3
42 1 19.6114 1.78286 0 0 0 0 1 3
43 1 18.72 0.891429 0.891429 0 0 0 1 2
44 1 18.7551 2.64133 2.69945 4.99026 2.33494 -6.23557 1 1
45 1 20.5115 0.869506 2.7363 2.19545 8.49637 -4.34492 1 1
46 1 20.5029 2.67429 0.891429 0 0 0 1 2
47 1 0 3.56572 0 0 0 0 1 3
48 1 1.78286 5.34857 0 0 0 0 1 3
49 1 0.891429 4.45714 0.891429 0 0 0 1 2
50 1 0.878779 6.26376 2.69756 5.53528 -0.242097 1.75662 1 1
51 1 2.67695 4.45316 2.69019 0.988056 4.90765 2.70821 1 1
52 1 2.67429 6.24 0.891429 0 0 0 1 2
53 1 3.57687 5.35434 1.83341 -5.34507 -1.97595 13.9218 1 1
54 1 5.32163 3.56017 1.79672 -0.165679 -2.90136 0.488289 1 1
55 1 3.56572 3.56572 0 0 0 0 1 3
56 1 5.34857 5.34857 0 0 0 0 1 3
57 1 4.45714 4.45714 0.891429 0 0 0 1 2
58 1 4.44579 6.25377 2.72006 2.29687 -4.43541 -5.17796 1 1
59 1 6.21301 4.42993 2.74284 4.31555 -4.55549 -5.67503 1 1
60 1 6.24 6.24 0.891429 0 0 0 1 2
61 1 5.37114 7.12567 1.77247 2.99456 -0.4688 1.34541 1 1
62 1 7.11271 5.36258 1.78548 1.69932 0.726509 -2.9178 1 1
63 1 7.13143 3.56572 0 0 0 0 1 3
64 1 8.93053 3.57296 1.76955 6.15533 2.60539 5.1204 1 1
65 1 8.02286 4.45714 0.891429 0 0 0 1 2
66 1 8.01508 6.22343 2.68139 -2.54239 -0.00631273 -3.0467 1 1
67 1 8.91429 5.34857 0 0 0 0 1 3
68 1 9.7855 4.46173 2.6587 -5.68448 -4.68951 2.69636 1 1
69 1 9.80572 6.24 0.891429 0 0 0 1 2
70 1 10.7269 5.35894 1.77807 0.0923196 -2.21147 -0.860033 1 1
71 1 12.5334 3.5697 1.73364 4.67481 2.00297 4.05204 1 1
72 1 10.6971 3.56572 0 0 0 0 1 3
73 1 12.48 5.34857 0 0 0 0 1 3
74 1 11.5886 4.45714 0.891429 0 0 0 1 2
75 1 11.5688 6.2769 2.65396 6.2615 7.65612 3.79939 1 1
76 1 13.356 4.44784 2.68026 4.49996 -5.36625 -0.235191 1 1
77 1 13.3714 6.24 0.891429 0 0 0 1 2
78 1 14.274 5.3404 1.76811 2.79667 3.84306 5.16022 1 1
79 1 16.0699 3.55475 1.77857 4.34461 -4.97154 0.509425 1 1
80 1 14.2629 3.56572 0 0 0 0 1 3
81 1 16.0457 5.34857 0 0 0 0 1 3
82 1 15.1543 4.45714 0.891429 0 0 0 1 2
83 1 15.1527 6.27988 2.66468 1.77829 0.16969 -1.22181 1 1
84 1 16.9211 4.46563 2.66947 0.624414 3.00413 -5.07587 1 1
85 1 16.9371 6.24 0.891429 0 0 0 1 2
86 1 17.8112 5.32411 1.78174 -2.31915 1.12119 0.274667 1 1
87 1 19.6196 3.5709 1.79339 -0.546801 -4.85108 -5.5002 1 1
88 1 -0.00507356 5.36388 1.77418 -3.38074 -7.14791 4.57049 1 1
89 1 17.8286 3.56572 0 0 0 0 1 3
90 1 19.6114 5.34857 0 0 0 0 1 3
91 1 18.72 4.45714 0.891429 0 0 0 1 2
92 1 18.7021 6.24168 2.6466 -3.64081 8.60286 5.90101 1 1
93 1 20.5556 4.44859 2.71806 -3.15572 -2.82676 -3.77487 1 1
94 1 20.5029 6.24 0.891429 0 0 0 1 2
95 1 19.6108 7.09979 1.79273 -8.48964 2.19572 4.02746 1 1
96 1 1.76578 7.13932 1.7553 6.57071 -6.09635 0.385095 1 1
97 1 0 7.13143 0 0 0 0 1 3
98 1 0.891429 8.02286 0.891429 0 0 0 1 2
99 1 2.65975 8.07458 2.68688 -3.01265 3.44014 7.11354 1 1
100 1 1.78286 8.91429 0 0 0 0 1 3
101 1 0.88181 9.80716 2.64809 4.95062 4.62474 0.382531 1 1
102 1 2.67429 9.80572 0.891429 0 0 0 1 2
103 1 1.75924 10.6875 1.77155 2.3253 -1.36624 0.509099 1 1
104 1 3.61532 8.96314 1.77311 -2.59175 8.73609 2.32777 1 1
105 1 3.56572 7.13143 0 0 0 0 1 3
106 1 4.45714 8.02286 0.891429 0 0 0 1 2
107 1 6.27585 8.03572 2.6674 0.243461 1.14333 -5.63794 1 1
108 1 5.34857 8.91429 0 0 0 0 1 3
109 1 4.46809 9.79622 2.68889 -0.512684 1.72109 0.176861 1 1
110 1 6.24 9.80572 0.891429 0 0 0 1 2
111 1 7.16322 8.92279 1.78712 -2.52337 10.179 2.60096 1 1
112 1 8.94489 7.09737 1.77871 7.6903 -6.28423 5.59973 1 1
113 1 7.13143 7.13143 0 0 0 0 1 3
114 1 8.02286 8.02286 0.891429 0 0 0 1 2
115 1 9.78731 8.01535 2.66484 -6.34863 -1.41894 -8.29268 1 1
116 1 8.0037 9.81983 2.69445 0.246441 -0.108679 -6.55736 1 1
117 1 8.91429 8.91429 0 0 0 0 1 3
118 1 9.80572 9.80572 0.891429 0 0 0 1 2
119 1 10.6809 8.92455 1.78151 4.1287 1.04704 4.0372 1 1
120 1 12.4658 7.1331 1.80871 3.08964 3.96208 -0.186795 1 1
121 1 10.6971 7.13143 0 0 0 0 1 3
122 1 11.5886 8.02286 0.891429 0 0 0 1 2
123 1 13.3631 8.03627 2.67721 -5.02493 -3.4178 -5.92471 1 1
124 1 12.48 8.91429 0 0 0 0 1 3
125 1 11.5683 9.84806 2.7023 3.51929 -6.93704 -4.64477 1 1
126 1 13.3714 9.80572 0.891429 0 0 0 1 2
127 1 12.4698 10.6795 1.82881 -1.51417 -0.358641 6.10728 1 1
128 1 16.0367 7.14477 1.77452 0.894612 1.35354 -2.33989 1 1
129 1 14.2784 8.91493 1.79264 0.374803 4.28412 0.633353 1 1
130 1 14.2629 7.13143 0 0 0 0 1 3
131 1 15.1543 8.02286 0.891429 0 0 0 1 2
132 1 16.9729 8.00177 2.66839 -0.69835 -0.592138 -2.94701 1 1
133 1 16.0457 8.91429 0 0 0 0 1 3
134 1 15.185 9.83908 2.67886 -2.90637 -3.2694 -1.22275 1 1
135 1 16.9371 9.80572 0.891429 0 0 0 1 2
136 1 16.073 10.7306 1.79681 0.920487 1.65443 -5.07711 1 1
137 1 17.8352 8.92866 1.77173 9.27867 3.19582 -5.11203 1 1
138 1 21.4092 8.86792 1.76855 -0.773282 -2.02877 2.31942 1 1
139 1 17.8286 7.13143 0 0 0 0 1 3
140 1 18.72 8.02286 0.891429 0 0 0 1 2
141 1 20.519 7.99849 2.66762 -1.47638 2.58718 3.43201 1 1
142 1 19.6114 8.91429 0 0 0 0 1 3
143 1 18.7413 9.81464 2.67157 3.97695 -1.71727 -4.21496 1 1
144 1 20.5029 9.80572 0.891429 0 0 0 1 2
145 1 0 10.6971 0 0 0 0 1 3
146 1 1.78286 12.48 0 0 0 0 1 3
147 1 0.891429 11.5886 0.891429 0 0 0 1 2
148 1 2.6647 11.5529 2.68078 5.79687 -1.66809 5.77898 1 1
149 1 0.919049 13.358 2.72581 1.29299 -5.48968 0.526291 1 1
150 1 2.67429 13.3714 0.891429 0 0 0 1 2
151 1 0.0250625 12.5036 1.74432 -9.23219 -2.46569 13.1261 1 1
152 1 5.36024 10.7203 1.81331 2.19363 -7.70452 -2.79691 1 1
153 1 3.59338 12.5009 1.76301 -1.31781 -1.02184 -7.06827 1 1
154 1 3.56572 10.6971 0 0 0 0 1 3
155 1 5.34857 12.48 0 0 0 0 1 3
156 1 4.45714 11.5886 0.891429 0 0 0 1 2
157 1 6.24882 11.5866 2.69039 4.25383 -1.52806 -4.58137 1 1
158 1 4.50578 13.372 2.69874 -5.80592 -0.572747 6.32401 1 1
159 1 6.24 13.3714 0.891429 0 0 0 1 2
160 1 5.3596 14.2898 1.8052 6.47163 -3.9143 0.719462 1 1
161 1 8.91846 10.7032 1.7847 8.25265 -0.462756 10.6262 1 1
162 1 7.1113 12.5009 1.7942 4.23918 -4.6629 4.86954 1 1
163 1 7.13143 10.6971 0 0 0 0 1 3
164 1 8.02286 11.5886 0.891429 0 0 0 1 2
165 1 8.91429 12.48 0 0 0 0 1 3
166 1 9.80129 11.5881 2.71945 -6.69173 -6.51297 5.23646 1 1
167 1 8.03709 13.3869 2.67983 -2.63294 -3.0251 4.07076 1 1
168 1 9.80572 13.3714 0.891429 0 0 0 1 2
169 1 10.6342 12.4934 1.81449 3.11972 -1.41513 1.56082 1 1
170 1 10.6971 10.6971 0 0 0 0 1 3
171 1 12.48 12.48 0 0 0 0 1 3
172 1 11.5886 11.5886 0.891429 0 0 0 1 2
173 1 13.3731 11.5665 2.67071 -1.92831 -2.9233 1.53455 1 1
174 1 11.5707 13.3782 2.73804 -6.77545 10.7648 5.39778 1 1
175 1 13.3714 13.3714 0.891429 0 0 0 1 2
176 1 12.4775 14.2741 1.79553 -2.9227 1.4781 -2.99874 1 1
177 1 14.2223 12.4423 1.75745 2.96808 -0.0781694 3.83093 1 1
178 1 14.2629 10.6971 0 0 0 0 1 3
179 1 16.0457 12.48 0 0 0 0 1 3
180 1 15.1543 11.5886 0.891429 0 0 0 1 2
181 1 16.9483 11.5991 2.72833 -0.556157 4.10471 -1.30128 1 1
182 1 15.0832 13.3629 2.64834 2.04753 -0.383691 -6.74316 1 1
183 1 16.9371 13.3714 0.891429 0 0 0 1 2
184 1 17.8154 12.4569 1.80827 2.52223 -0.274011 7.22536 1 1
185 1 19.5902 10.7225 1.80663 -2.07092 -8.2125 1.8809 1 1
186 1 17.8286 10.6971 0 0 0 0 1 3
187 1 19.6114 12.48 0 0 0 0 1 3
188 1 18.72 11.5886 0.891429 0 0 0 1 2
189 1 20.5438 11.5701 2.68505 1.20605 -1.68792 -4.63942 1 1
190 1 18.7557 13.3622 2.6892 -9.68991 0.834 0.269191 1 1
191 1 20.5029 13.3714 0.891429 0 0 0 1 2
192 1 19.6186 14.2531 1.8117 -5.57012 2.81424 5.14325 1 1
193 1 1.80867 14.257 1.79302 -2.39494 0.0909486 3.36511 1 1
194 1 0 14.2629 0 0 0 0 1 3
195 1 1.78286 16.0457 0 0 0 0 1 3
196 1 0.891429 15.1543 0.891429 0 0 0 1 2
197 1 0.918844 16.9693 2.68372 -5.65261 -4.17094 -1.35711 1 1
198 1 2.7164 15.1684 2.65998 -0.88964 4.45002 3.55338 1 1
199 1 2.67429 16.9371 0.891429 0 0 0 1 2
200 1 0.0247294 16.0236 1.85467 -1.17441 0.790286 2.64561 1 1
201 1 3.55364 16.0204 1.72699 3.96071 -3.73401 4.85659 1 1
202 1 3.56572 14.2629 0 0 0 0 1 3
203 1 5.34857 16.0457 0 0 0 0 1 3
204 1 4.45714 15.1543 0.891429 0 0 0 1 2
205 1 4.44462 16.9092 2.64007 4.57769 3.25893 -1.86457 1 1
206 1 6.25605 15.1432 2.65357 1.41503 -5.82537 0.634113 1 1
207 1 6.24 16.9371 0.891429 0 0 0 1 2
208 1 7.10056 16.0237 1.75783 -0.210319 -2.79716 2.70237 1 1
209 1 5.34498 17.8103 1.76593 -2.42201 -0.63411 -1.71963 1 1
210 1 8.9331 14.2893 1.76941 3.57381 5.14663 1.88862 1 1
211 1 7.13143 14.2629 0 0 0 0 1 3
212 1 8.02286 15.1543 0.891429 0 0 0 1 2
213 1 8.05568 16.9152 2.68338 4.43548 -3.20182 -2.97906 1 1
214 1 8.91429 16.0457 0 0 0 0 1 3
215 1 9.81269 15.1598 2.68509 3.42529 2.3933 -5.92454 1 1
216 1 9.80572 16.9371 0.891429 0 0 0 1 2
217 1 8.88918 17.8013 1.79547 -7.59886 -15.3178 5.16156 1 1
218 1 10.7153 16.0017 1.78944 -1.53563 -0.295594 -5.81783 1 1
219 1 10.6971 14.2629 0 0 0 0 1 3
220 1 12.48 16.0457 0 0 0 0 1 3
221 1 11.5886 15.1543 0.891429 0 0 0 1 2
222 1 11.5549 16.95 2.67012 -4.25257 -1.0559 5.28058 1 1
223 1 13.362 15.194 2.69498 -4.55572 1.27714 1.29486 1 1
224 1 13.3714 16.9371 0.891429 0 0 0 1 2
225 1 12.5019 17.8002 1.75394 5.53264 2.04068 4.37537 1 1
226 1 16.0062 14.2741 1.73364 1.91219 -11.5885 0.43812 1 1
227 1 14.2532 16.0578 1.77013 -6.64909 -0.733092 -0.329633 1 1
228 1 14.2629 14.2629 0 0 0 0 1 3
229 1 16.0457 16.0457 0 0 0 0 1 3
230 1 15.1543 15.1543 0.891429 0 0 0 1 2
231 1 15.1725 16.898 2.6628 0.114149 -2.6707 -1.11951 1 1
232 1 16.9411 15.1184 2.67093 -2.21676 9.06954 3.91508 1 1
233 1 16.9371 16.9371 0.891429 0 0 0 1 2
234 1 17.8326 16.0546 1.77612 0.847521 1.06827 -0.750547 1 1
235 1 17.8286 14.2629 0 0 0 0 1 3
236 1 19.6114 16.0457 0 0 0 0 1 3
237 1 18.72 15.1543 0.891429 0 0 0 1 2
238 1 18.7553 16.9647 2.66418 7.4989 5.00287 0.911822 1 1
239 1 20.5078 15.118 2.73633 3.12061 -8.6451 -7.17903 1 1
240 1 20.5029 16.9371 0.891429 0 0 0 1 2
241 1 19.6491 17.8033 1.75676 -9.39221 -4.79689 4.4514 1 1
242 1 1.77343 17.8688 1.79943 -5.97784 1.57553 2.19604 1 1
243 1 0 17.8286 0 0 0 0 1 3
244 1 1.78286 19.6114 0 0 0 0 1 3
245 1 0.891429 18.72 0.891429 0 0 0 1 2
246 1 0.852428 20.4758 2.71988 -0.823385 -2.62363 4.23218 1 1
247 1 2.73802 18.7488 2.68054 -1.45293 0.909525 2.83331 1 1
248 1 2.67429 20.5029 0.891429 0 0 0 1 2
249 1 3.5655 19.6169 1.77331 1.64945 -0.813076 -0.881444 1 1
250 1 -0.00182603 19.5967 1.8237 2.21908 -6.73139 3.56196 1 1
251 1 5.33745 21.4143 1.78178 -1.12531 4.5357 0.602589 1 1
252 1 3.56572 17.8286 0 0 0 0 1 3
253 1 5.34857 19.6114 0 0 0 0 1 3
254 1 4.45714 18.72 0.891429 0 0 0 1 2
255 1 4.50064 20.5259 2.66028 -4.18908 10.2807 3.83198 1 1
256 1 6.24397 18.6928 2.69292 0.175744 -0.431724 -0.623518 1 1
257 1 6.24 20.5029 0.891429 0 0 0 1 2
258 1 7.08971 19.6155 1.77952 -2.31546 3.02271 -0.17353 1 1
259 1 7.13143 17.8286 0 0 0 0 1 3
260 1 8.02286 18.72 0.891429 0 0 0 1 2
261 1 8.03894 20.5291 2.71379 1.17654 2.4213 -9.93342 1 1
262 1 8.91429 19.6114 0 0 0 0 1 3
263 1 9.78223 18.695 2.67284 2.3382 -6.70934 -1.25978 1 1
264 1 9.80572 20.5029 0.891429 0 0 0 1 2
265 1 10.6632 19.6186 1.81358 5.06055 1.61321 -5.22581 1 1
266 1 12.5029 -0.0213753 1.81044 -0.29891 -2.46589 1.96113 1 1
267 1 10.6971 17.8286 0 0 0 0 1 3
268 1 12.48 19.6114 0 0 0 0 1 3
269 1 11.5886 18.72 0.891429 0 0 0 1 2
270 1 11.6129 20.4688 2.68635 -8.27153 -1.78988 5.40132 1 1
271 1 13.3796 18.6892 2.62702 -9.57376 8.82453 5.96177 1 1
272 1 13.3714 20.5029 0.891429 0 0 0 1 2
273 1 14.2709 19.5669 1.74145 2.72806 -10.7951 6.75027 1 1
274 1 16.0414 17.8218 1.80123 3.94186 -1.66017 -1.91214 1 1
275 1 14.2629 17.8286 0 0 0 0 1 3
276 1 16.0457 19.6114 0 0 0 0 1 3
277 1 15.1543 18.72 0.891429 0 0 0 1 2
278 1 15.145 20.4926 2.69057 2.35475 -6.35328 4.51387 1 1
279 1 16.9951 18.6871 2.71232 -2.17018 -3.9487 2.51369 1 1
280 1 16.9371 20.5029 0.891429 0 0 0 1 2
281 1 19.5759 21.4195 1.80113 -0.45968 4.62401 -3.15491 1 1
282 1 17.8256 19.63 1.80038 -5.56404 4.35816 1.88595 1 1
283 1 17.8286 17.8286 0 0 0 0 1 3
284 1 19.6114 19.6114 0 0 0 0 1 3
285 1 18.72 18.72 0.891429 0 0 0 1 2
286 1 18.6851 20.4972 2.71199 -4.46742 3.96863 2.84734 1 1
287 1 20.5236 18.6921 2.69234 0.633069 -4.07023 -1.01348 1 1
288 1 20.5029 20.5029 0.891429 0 0 0 1 2
289 1 1.7734 1.76161 3.5841 7.67631 -4.57995 -0.654375 1 1
290 1 0.891861 0.869407 4.48183 1.17235 0.82787 -10.9761 1 1
291 1 2.68534 2.67327 4.50949 0.755074 5.05421 -4.89677 1 1
292 1 1.79087 21.4462 5.37342 -4.3274 -4.96348 4.36228 1 1
293 1 1.78669 3.57648 5.41807 -3.57365 2.2539 -6.74723 1 1
294 1 21.3833 1.77757 5.32185 7.57715 3.93076 1.36019 1 1
295 1 0.00290581 21.3868 3.6061 1.88465 0.694881 6.29647 1 1
296 1 3.56475 1.79988 5.36031 2.28265 -0.957265 5.15817 1 1
297 1 5.38882 1.74808 3.57569 -1.07189 -3.10242 -6.83021 1 1
298 1 4.46034 0.874207 4.47524 -5.05143 1.24017 -3.3646 1 1
299 1 6.2165 0.889538 6.29029 6.56931 -1.04456 -10.2319 1 1
300 1 6.25157 2.69482 4.44872 2.27201 9.08698 10.1091 1 1
301 1 3.57715 21.3871 3.60817 -1.99476 5.1561 4.0576 1 1
302 1 7.16015 0.0341406 3.60481 -5.41659 -7.95443 -7.21421 1 1
303 1 5.35076 0.0102401 5.37956 -3.00219 1.51668 -0.184837 1 1
304 1 7.12639 3.53994 3.58753 -4.99253 4.23995 3.3146 1 1
305 1 7.16703 1.80135 5.338 -3.851 -3.33124 1.53262 1 1
306 1 8.95398 1.78941 3.62786 -6.08798 -8.22859 -5.27907 1 1
307 1 8.04658 0.92295 4.47467 -3.76549 -0.891779 -7.23401 1 1
308 1 8.05714 2.67317 6.24362 7.43693 -5.17845 -1.22085 1 1
309 1 9.84306 0.886148 6.29405 -2.46802 -0.829363 5.50517 1 1
310 1 9.83851 2.65087 4.46599 5.78085 -4.77517 -0.900632 1 1
311 1 10.7364 1.78249 5.4043 5.54399 4.7151 10.03 1 1
312 1 12.5084 1.80439 3.54304 -4.45979 -4.9242 1.18166 1 1
313 1 11.6379 0.921997 4.4941 3.94863 -1.60269 1.52881 1 1
314 1 11.5728 2.68095 6.28243 -5.31083 0.374526 -0.667471 1 1
315 1 13.3628 2.65807 4.49165 -6.02114 4.12952 0.921521 1 1
316 1 13.3768 0.884524 6.2313 -2.03276 3.89148 1.85104 1 1
317 1 12.4817 3.58113 5.32185 11.9405 -2.1736 5.81173 1 1
318 1 14.2623 1.79429 5.36965 5.35641 6.0496 6.61636 1 1
319 1 12.5149 21.3982 5.36308 -1.12054 2.23681 0.975144 1 1
320 1 14.2649 3.55455 3.58716 0.665409 4.20681 10.9691 1 1
321 1 16.0366 1.75078 3.54882 -0.476146 2.09821 -3.56268 1 1
322 1 15.1381 0.897496 4.46338 0.215057 6.62283 2.47665 1 1
323 1 15.1406 2.71357 6.22121 -4.10351 -7.15152 2.06204 1 1
324 1 16.9245 2.66731 4.48413 -1.91865 -3.64774 -2.73867 1 1
325 1 17.8069 1.82266 5.37863 -1.40132 -7.58502 1.96575 1 1
326 1 16.0883 21.4245 5.36306 -8.0441 5.35953 -0.604413 1 1
327 1 19.6162 1.78449 3.62136 -1.44353 3.39808 3.04665 1 1
328 1 18.6842 0.904937 4.48398 -2.62869 0.345594 -4.45152 1 1
329 1 20.5011 2.68579 4.50504 -3.79307 -6.47254 4.79706 1 1
330 1 17.8477 -0.043667 3.59392 -5.7319 0.48568 9.38399 1 1
331 1 19.6007 21.4312 5.42668 2.94711 2.18079 4.40428 1 1
332 1 -0.00788482 3.60339 3.63868 -1.61145 2.91987 -0.276939 1 1
333 1 1.79722 5.39356 3.58639 -5.56886 -4.44979 3.90695 1 1
334 1 0.894518 4.47146 4.4934 -1.02746 -13.8672 -7.99602 1 1
335 1 2.6675 4.47126 6.26842 -0.0851682 -6.09152 1.01391 1 1
336 1 2.68454 6.25582 4.51006 3.16986 3.92051 0.756913 1 1
337 1 3.5696 3.56312 3.62572 -3.58485 -2.4494 -0.731223 1 1
338 1 -0.00802055 5.39172 5.42681 -3.44905 -2.46442 4.87001 1 1
339 1 3.51768 5.30747 5.3869 2.37684 2.34816 -4.59098 1 1
340 1 5.37302 3.57074 5.3552 -5.12688 1.33385 4.6899 1 1
341 1 5.37739 5.34219 3.59503 2.4787 -1.46695 0.838215 1 1
342 1 4.43412 4.4517 4.51019 -13.551 -0.339556 7.35961 1 1
343 1 4.44852 6.19104 6.23399 -6.90652 6.41455 2.76745 1 1
344 1 6.24167 6.23408 4.46996 2.38246 -2.00239 2.86685 1 1
345 1 7.17106 5.28217 5.37112 -4.32747 0.293262 2.4353 1 1
346 1 5.30181 7.10289 5.35731 -1.41852 10.3137 0.817034 1 1
347 1 6.22302 4.44217 6.27632 -3.2377 -0.400306 -10.3923 1 1
348 1 8.94828 3.56707 5.34887 3.19023 -1.72573 0.895641 1 1
349 1 10.7174 3.54285 3.54664 -1.48781 -3.84963 0.0923036 1 1
350 1 8.93178 5.34855 3.56143 -6.47948 -5.30541 -3.81628 1 1
351 1 8.03355 4.45412 4.47018 -0.281772 3.0361 -1.08367 1 1
352 1 8.05473 6.21165 6.25845 -3.42887 -3.47967 -1.27662 1 1
353 1 9.81119 4.41685 6.26603 -5.78115 -0.907137 4.2865 1 1
354 1 9.8127 6.23382 4.46401 2.44273 -6.37544 -1.07916 1 1
355 1 10.7095 5.32674 5.36027 -3.29539 5.57912 2.91485 1 1
356 1 12.4872 5.34728 3.56297 -2.98405 -0.764024 3.84171 1 1
357 1 11.5895 4.45569 4.41686 3.5084 -8.3379 -4.60783 1 1
358 1 13.2942 6.27456 4.47356 2.17331 4.31551 1.72908 1 1
359 1 14.2462 5.35991 5.37083 -3.73391 -4.40075 2.01783 1 1
360 1 16.0251 3.60622 5.35088 -1.5424 9.07052 2.25209 1 1
361 1 17.8508 3.50981 3.5991 -6.462 -1.48447 7.84289 1 1
362 1 16.0686 5.36378 3.53439 4.26208 -0.60013 0.552283 1 1
363 1 15.1513 4.48876 4.43062 2.42294 -4.18352 11.5017 1 1
364 1 16.9421 6.24187 4.44948 -3.93811 -2.45511 -4.29563 1 1
365 1 16.9323 4.42993 6.25604 -5.18515 6.67406 -0.860151 1 1
366 1 16.0615 7.10276 5.37228 -1.06954 -0.233988 5.31486 1 1
367 1 15.1406 6.22732 6.28531 0.837844 0.587321 9.06379 1 1
368 1 19.613 3.62368 5.36325 6.8457 2.29097 1.46905 1 1
369 1 17.8219 5.36325 5.35057 -12.2419 -0.0891207 5.86911 1 1
370 1 19.5973 5.34101 3.55406 3.59575 -1.6736 3.78016 1 1
371 1 18.6839 4.4433 4.45998 0.475504 -0.0228002 3.41124 1 1
372 1 20.4721 4.49704 6.29537 1.3737 -4.86895 1.62085 1 1
373 1 20.5162 6.22732 4.48517 2.60132 -0.268026 -0.058249 1 1
374 1 19.6586 7.11441 5.36069 0.0911399 1.75234 3.83054 1 1
375 1 21.4099 7.09548 3.59212 -3.56968 -1.36333 1.85511 1 1
376 1 1.77971 7.14991 5.39641 1.52522 -2.14671 -7.17363 1 1
377 1 1.73063 8.93684 3.61332 0.369986 -2.4238 7.09662 1 1
378 1 0.881091 8.0687 4.46592 0.76453 2.01395 5.7613 1 1
379 1 2.66394 8.01741 6.22892 -1.44625 -7.21027 0.623177 1 1
380 1 0.902124 9.86922 6.29289 -0.153083 -0.054533 8.56087 1 1
381 1 2.72927 9.85198 4.47393 -7.9419 -5.26135 -7.28369 1 1
382 1 -0.00958835 8.92075 5.38598 -5.33631 1.13045 6.74506 1 1
383 1 1.78778 10.6988 5.39329 1.41686 1.55463 -2.97245 1 1
384 1 3.56793 7.14899 3.59095 -0.468143 -3.74782 -11.1499 1 1
385 1 7.1226 7.1411 3.60091 4.67696 0.0905502 -3.75336 1 1
386 1 3.58783 10.6914 3.58847 2.73302 3.87579 -4.92799 1 1
387 1 3.59486 8.87865 5.3764 -4.02336 -0.0966849 -9.995 1 1
388 1 5.40037 8.94615 3.59962 3.60078 10.0268 -2.16614 1 1
389 1 4.49345 8.02917 4.45773 4.08629 -6.98865 9.99959 1 1
390 1 4.44166 9.82825 6.26971 -3.30015 -2.11305 4.13471 1 1
391 1 6.2517 9.8199 4.52209 -5.76775 -2.3288 2.58369 1 1
392 1 8.92512 7.12816 5.35764 -1.58116 -2.89075 0.00129211 1 1
393 1 7.15536 8.9296 5.40364 -0.670105 -1.71403 5.27417 1 1
394 1 8.90571 8.91054 3.6183 8.21784 -1.41643 -5.06694 1 1
395 1 7.99234 8.02716 4.50966 5.45438 8.02089 2.6528 1 1
396 1 9.80065 9.82447 4.48521 0.6731 -1.92219 -0.911572 1 1
397 1 10.6927 8.92084 5.38159 -3.9273 -8.95468 2.50828 1 1
398 1 10.651 10.7396 3.58539 -5.61682 1.47801 -5.26297 1 1
399 1 9.79706 8.04086 6.26463 4.21286 0.535045 3.80392 1 1
400 1 12.4734 7.18155 5.38117 -7.62506 -5.8262 4.39694 1 1
401 1 10.6583 7.17244 3.59329 -5.72419 -6.41514 2.0117 1 1
402 1 12.4962 8.93518 3.63076 -2.54799 2.70715 1.53478 1 1
403 1 11.5617 8.01779 4.49354 6.17964 -4.30611 1.69887 1 1
404 1 13.4004 9.77179 4.50546 -5.5097 1.70997 2.61318 1 1
405 1 14.2299 7.13084 3.55431 3.60566 -3.59482 -8.18939 1 1
406 1 14.3087 8.91844 5.36387 -4.92382 -5.02599 -1.94714 1 1
407 1 17.8585 7.12618 3.59969 2.68159 -3.76337 -0.234137 1 1
408 1 16.0517 8.91111 3.59792 -2.91278 -8.20609 -1.23675 1 1
409 1 15.1112 8.02887 4.4721 2.43004 4.53425 2.4723 1 1
410 1 16.9272 9.78488 4.49036 -0.529354 3.63624 3.14303 1 1
411 1 16.0833 10.6953 5.4417 0.981672 1.86687 4.17111 1 1
412 1 16.9367 8.01414 6.25666 -4.62896 -7.14382 4.65732 1 1
413 1 17.8673 8.87391 5.39334 9.22175 -2.72407 -2.23428 1 1
414 1 19.634 8.88436 3.57212 -3.5119 -0.169097 -5.32694 1 1
415 1 18.7225 8.03337 4.4565 -3.5428 -2.0448 0.570543 1 1
416 1 18.7695 9.80767 6.25216 8.29812 -5.56724 5.20386e-05 1 1
417 1 20.5291 9.8075 4.4411 5.90599 -0.807902 1.17367 1 1
418 1 20.5042 8.03291 6.24617 -1.66644 -0.865744 6.35417 1 1
419 1 19.6329 10.714 5.34932 4.09936 -2.44429 -0.606379 1 1
420 1 -0.000895986 10.7005 3.58064 1.18138 -4.74057 -7.29358 1 1
421 1 1.79828 12.4559 3.56363 -1.44552 7.01199 0.24838 1 1
422 1 0.897982 11.5884 4.49555 0.188011 -3.06874 -2.27867 1 1
423 1 2.70014 11.6467 6.30318 -3.22088 6.67951 -5.66024 1 1
424 1 0.900848 13.3955 6.24917 -1.16336 -8.67357 2.58479 1 1
425 1 2.69797 13.4063 4.45702 2.02519 1.33219 2.4954 1 1
426 1 0.0105645 12.4697 5.3886 0.158602 -3.20866 -9.42545 1 1
427 1 5.35429 10.721 5.3857 0.197039 0.543688 -4.13485 1 1
428 1 3.60318 14.2273 3.54952 -2.18802 4.06983 -4.32245 1 1
429 1 3.59711 12.4849 5.33748 3.56223 0.535161 -6.85314 1 1
430 1 5.36869 12.4643 3.57694 2.93655 4.53491 -2.78505 1 1
431 1 4.45768 11.5933 4.45314 0.353614 -0.869276 0.313677 1 1
432 1 6.32812 13.3569 4.44779 -2.33533 1.04689 1.0999 1 1
433 1 7.18014 14.2626 3.56218 -4.30056 7.19877 4.61716 1 1
434 1 6.2739 11.6015 6.25955 -4.7495 2.10501 0.0640332 1 1
435 1 7.14814 10.7003 3.57035 -1.19719 3.00021 -1.20429 1 1
436 1 7.18631 12.4683 5.36984 5.37574 6.99611 0.848024 1 1
437 1 8.87071 10.7414 5.36782 5.94501 4.47657 -1.86726 1 1
438 1 8.89967 12.5196 3.59829 0.313331 0.322407 1.70293 1 1
439 1 8.04189 11.6627 4.46677 -8.00377 -4.37923 8.85206 1 1
440 1 9.8617 11.6376 6.28149 -5.22442 10.2852 7.38291 1 1
441 1 8.07872 13.3572 6.26751 12.6613 -0.0104834 5.62071 1 1
442 1 9.77707 13.3487 4.50831 -4.77555 -2.1897 -9.79166 1 1
443 1 10.6709 14.271 3.60409 -7.42653 2.26904 3.50411 1 1
444 1 12.4795 10.6761 5.38343 -9.91206 -1.00607 2.38225 1 1
445 1 10.7417 12.4823 5.3945 -3.94681 0.469325 16.9036 1 1
446 1 12.4743 12.4433 3.57643 7.57852 -0.142234 2.97586 1 1
447 1 11.6202 11.561 4.49062 -5.70632 4.4302 -5.88952 1 1
448 1 13.3835 11.6056 6.232 5.28928 1.29648 -4.73288 1 1
449 1 11.6357 13.3706 6.29466 1.91383 -4.52143 -4.81197 1 1
450 1 13.3825 13.3461 4.47425 -9.80292 2.59441 5.4897 1 1
451 1 14.2841 10.7193 3.61187 0.980835 -4.42605 1.17909 1 1
452 1 14.2579 12.5055 5.41709 3.013 1.24031 -1.13335 1 1
453 1 16.0423 12.4845 3.59055 0.610519 0.363773 5.65133 1 1
454 1 15.1731 11.5883 4.51415 -4.28129 -5.33436 -2.16439 1 1
455 1 16.9483 11.5788 6.22839 1.2228 7.83219 -2.24217 1 1
456 1 16.9023 13.3699 4.45902 2.93998 -3.82908 8.96345 1 1
457 1 17.8136 12.5036 5.37697 -1.32584 -6.51128 -1.79009 1 1
458 1 15.1395 13.3916 6.31326 9.86861 -1.57479 -7.92694 1 1
459 1 17.8716 10.7106 3.58903 -5.29965 -6.68608 4.47925 1 1
460 1 19.6156 12.5044 3.61301 0.964879 -1.17476 -6.73664 1 1
461 1 18.7532 11.5981 4.49946 2.56882 0.50512 -3.01131 1 1
462 1 18.713 13.4044 6.28202 0.877478 -8.41354 7.15237 1 1
463 1 20.4959 13.4205 4.51602 3.23337 9.09563 2.12668 1 1
464 1 20.5317 11.6436 6.27364 2.24183 -3.39704 3.46421 1 1
465 1 1.76426 14.2906 5.33927 -2.73368 -3.10993 6.98318 1 1
466 1 1.8004 16.0634 3.5693 -9.50886 -8.52646 -1.67963 1 1
467 1 0.944715 15.1751 4.41411 -8.37377 2.7955 -6.45393 1 1
468 1 2.7051 15.1363 6.25138 2.4742 -1.8035 0.340272 1 1
469 1 2.68649 16.9341 4.47507 -2.02756 -3.9598 -10.1193 1 1
470 1 0.00921399 16.063 5.37259 -6.97676 -5.74123 -5.56472 1 1
471 1 -0.0209823 14.2884 3.62531 2.2986 -3.04322 -5.55669 1 1
472 1 1.82429 17.8439 5.3822 8.44301 4.58117 -0.0552218 1 1
473 1 5.41001 14.2032 5.34828 -1.98874 5.61311 -2.51984 1 1
474 1 3.60064 16.0046 5.36926 -3.81194 -4.1038 4.38236 1 1
475 1 5.3774 16.0229 3.55251 -5.01014 -1.30789 1.02014 1 1
476 1 4.51317 15.0911 4.45101 -1.40592 -9.13801 -3.02195 1 1
477 1 4.49396 16.8867 6.25857 3.01429 1.81538 3.62908 1 1
478 1 6.26851 15.1026 6.28319 -2.75124 8.88542 0.987332 1 1
479 1 6.21933 16.9125 4.48554 -2.52574 2.57076 -3.93295 1 1
480 1 7.10165 16.0508 5.37828 0.163271 -0.36212 7.80445 1 1
481 1 8.90699 14.2271 5.41046 -2.16253 1.33618 -9.37485 1 1
482 1 8.92324 16.0208 3.61184 -4.9506 -6.5664 7.43483 1 1
483 1 7.98242 15.1371 4.4551 4.33254 2.08476 8.11427 1 1
484 1 8.00869 16.9167 6.25173 3.63295 0.464784 -4.8723 1 1
485 1 9.86573 15.1365 6.2626 2.23514 2.23358 -1.83682 1 1
486 1 9.84429 16.93 4.50467 2.43253 -4.56886 4.31812 1 1
487 1 10.6984 16.0045 5.38586 -1.12487 3.22791 1.26568 1 1
488 1 8.90794 17.8058 5.34425 -5.30318 -3.1091 2.4474 1 1
489 1 10.699 17.8102 3.58081 4.81297 1.64502 4.85218 1 1
490 1 12.5138 14.2046 5.37171 -5.18415 4.31389 2.19717 1 1
491 1 12.465 16.0814 3.62405 -4.90657 1.00242 1.22674 1 1
492 1 11.6314 15.1767 4.49012 -6.03133 1.6827 4.84624 1 1
493 1 11.6091 16.8807 6.25832 -2.00724 2.71688 -1.10117 1 1
494 1 13.3857 16.9182 4.46729 -2.20522 4.83655 -4.4073 1 1
495 1 13.4128 15.1389 6.29475 -6.38929 -0.918528 4.65133 1 1
496 1 12.5044 17.8326 5.33857 5.99632 13.0481 -0.927894 1 1
497 1 14.233 14.2734 3.59736 3.87955 -10.0631 4.16687 1 1
498 1 16.0124 14.255 5.36067 5.28414 -2.10152 7.07113 1 1
499 1 17.7986 14.2119 3.549 1.19652 5.2799 5.36546 1 1
500 1 14.2968 16.0737 5.40825 2.59567 2.12255 -0.170822 1 1
501 1 14.2554 17.7985 3.55416 9.26195 -2.45823 0.993014 1 1
502 1 16.0744 16.0286 3.59667 2.16195 -2.77333 -3.98093 1 1
503 1 15.137 15.1411 4.49701 5.54941 2.60223 -3.49986 1 1
504 1 16.9514 16.9538 4.46687 -1.39364 0.877263 -11.1582 1 1
505 1 16.9283 15.1732 6.25603 -0.832758 1.99519 -1.93474 1 1
506 1 17.8534 16.0595 5.41821 6.75474 6.48352 -2.51875 1 1
507 1 19.6176 14.3201 5.43626 2.23579 -5.33218 -3.14339 1 1
508 1 19.5996 16.0717 3.64832 1.45112 3.05984 -0.50009 1 1
509 1 18.6982 15.1568 4.48558 0.456457 3.04967 -4.80717 1 1
510 1 20.5213 16.9376 4.49833 2.41985 -2.22536 1.89285 1 1
511 1 19.6243 17.8137 5.36767 1.89076 2.76117 -3.26184 1 1
512 1 20.5419 15.1741 6.27683 -5.15527 2.16411 -0.832168 1 1
513 1 1.76524 19.6218 3.64653 -0.344089 -2.0569 1.08239 1 1
514 1 0.918537 18.714 4.52956 7.40126 -3.14741 -8.07297 1 1
515 1 0.890262 20.4775 6.26708 3.13599 1.63706 -8.7956 1 1
516 1 2.64483 20.5201 4.47295 8.23885 -6.24167 -4.08646 1 1
517 1 0.00894105 17.8326 3.61739 -6.63897 1.91121 6.95225 1 1
518 1 -0.00925968 19.621 5.39913 -11.0864 8.7292 0.838313 1 1
519 1 2.68728 18.7302 6.26377 -6.80177 1.46028 -0.303757 1 1
520 1 5.36527 17.8449 5.34773 3.3671 -9.27815 -0.330014 1 1
521 1 3.59912 17.839 3.52703 -0.428858 2.33952 2.09605 1 1
522 1 3.56184 19.6167 5.36047 1.52827 0.996061 0.00207629 1 1
523 1 5.37099 19.651 3.5918 10.2938 1.08786 0.345911 1 1
524 1 4.4468 18.7595 4.4934 3.11969 -1.66529 -3.16809 1 1
525 1 4.45226 20.5196 6.26039 -1.22641 0.736962 -1.74921 1 1
526 1 6.24231 18.7633 6.25033 9.8669 0.0137161 3.21254 1 1
527 1 6.2023 20.5606 4.4827 -3.75571 -2.21885 3.16158 1 1
528 1 7.13378 17.8164 3.53013 1.23638 -0.00109675 2.41146 1 1
529 1 7.13376 19.6657 5.38917 -0.945924 -5.51014 0.94312 1 1
530 1 8.95125 21.4066 5.31951 0.99795 10.2678 -0.168398 1 1
531 1 8.96375 19.5809 3.5921 1.08575 3.46919 10.7517 1 1
532 1 8.03041 18.6847 4.49202 -3.75958 -8.02893 9.7642 1 1
533 1 8.05089 20.5474 6.27061 -2.81315 3.60593 1.96842 1 1
534 1 9.80729 18.6552 6.26041 -0.540576 -2.713 8.96916 1 1
535 1 9.83323 20.5121 4.5117 3.2055 0.0997512 0.613628 1 1
536 1 10.7397 19.6056 5.38073 -7.29779 -2.23861 3.80114 1 1
537 1 10.6956 0.0255844 3.62477 3.58091 -4.91827 -5.59909 1 1
538 1 12.5358 19.6173 3.55763 -1.56711 2.56363 3.49336 1 1
539 1 11.6287 18.7034 4.45628 -4.89778 5.77272 -1.93097 1 1
540 1 13.3662 18.7228 6.25858 -3.94231 -0.633363 -2.67184 1 1
541 1 13.4237 20.5163 4.44626 9.12146 3.37347 1.08833 1 1
542 1 16.0284 17.8758 5.37921 10.3642 2.45545 6.3381 1 1
543 1 14.2739 21.4194 3.58446 -8.93566 -1.03745 -1.14586 1 1
544 1 14.3059 19.656 5.35354 -2.37911 -0.501859 2.97337 1 1
545 1 16.0744 19.6017 3.59921 2.79742 1.83549 1.00327 1 1
546 1 15.1487 18.7279 4.49001 -1.26042 0.552608 -10.9094 1 1
547 1 16.9785 18.6582 6.28905 5.92708 10.8205 -2.95175 1 1
548 1 16.9775 20.4729 4.51721 1.53219 4.94464 1.8396 1 1
549 1 17.8909 19.6191 5.3988 -0.00154071 -3.30475 0.015659 1 1
550 1 17.843 17.8248 3.5932 6.15612 3.28206 6.94643 1 1
551 1 19.6395 19.6238 3.57353 -8.73033 0.596107 2.81584 1 1
552 1 18.7511 18.721 4.47563 2.84968 2.35496 0.270879 1 1
553 1 18.7668 20.5106 6.27413 11.6636 -2.08025 2.63007 1 1
554 1 20.5383 18.6971 6.2551 0.751372 -4.93856 -2.20639 1 1
555 1 20.5396 20.498 4.48265 -3.39366 -2.11382 8.52421 1 1
556 1 2.70684 0.903473 6.2344 -3.23675 1.26815 -5.51566 1 1