ITEM: TIMESTEP
1750
ITEM: NUMBER OF ATOMS
2952
ITEM: BOX BOUNDS pp pp mm
0.0000000000000000e+00 2.1394294200000001e+01
0.0000000000000000e+00 2.1394294200000001e+01
-4.4571446250000002e-01 5.3485735500000004e+01
ITEM: ATOMS id type x y z vx vy vz v_is_diamond c_structure_type
1 1 0 0 0 0 0 0 1 3
2 1 1.78286 1.78286 0 0 0 0 1 3
3 1 0.891429 0.891429 0.891429 0 0 0 1 2
4 1 0.895149 2.68547 2.68896 -2.41029 0.207448 3.53508 1 1
5 1 2.68867 0.919109 2.69436 1.4268 -6.02995 1.51229 1 1
6 1 2.67429 2.67429 0.891429 0 0 0 1 2
7 1 0.0316212 1.8053 1.76762 -2.99819 -5.32222 -0.155113 1 1
8 1 1.80462 21.4365 1.75455 0.27798 7.63204 0.815146 1 1
9 1 1.78684 3.56762 1.77823 1.68966 -4.03632 6.05251 1 1
10 1 3.56915 1.80749 1.77015 2.12576 4.19109 -0.563434 1 1
11 1 3.56572 0 0 0 0 0 1 3
12 1 5.34857 1.78286 0 0 0 0 1 3
13 1 4.45714 0.891429 0.891429 0 0 0 1 2
14 1 4.4725 2.69247 2.64374 0.954705 -2.44532 4.11704 1 1
15 1 6.23693 0.851396 2.68901 -1.59685 1.92843 3.12187 1 1
16 1 6.24 2.67429 0.891429 0 0 0 1 2
17 1 7.11415 1.78753 1.79596 3.03578 -3.40996 -2.43607 1 1
18 1 7.13143 0 0 0 0 0 1 3
19 1 8.02286 0.891429 0.891429 0 0 0 1 2
20 1 8.02177 2.6851 2.66929 -1.86703 3.13579 -5.33292 1 1
21 1 8.91429 1.78286 0 0 0 0 1 3
22 1 9.79093 0.869343 2.6371 5.00172 -1.34924 2.9854 1 1
23 1 9.80572 2.67429 0.891429 0 0 0 1 2
24 1 8.93247 0.0228176 1.7193 3.72159 -3.43774 10.1579 1 1
25 1 10.7101 1.78728 1.7999 -3.4504 1.89533 6.56934 1 1
26 1 10.6971 0 0 0 0 0 1 3
27 1 12.48 1.78286 0 0 0 0 1 3
28 1 11.5886 0.891429 0.891429 0 0 0 1 2
29 1 11.5469 2.68637 2.7197 -4.64493 2.62422 10.0503 1 1
30 1 13.3659 0.893502 2.65966 10.0723 3.84213 -5.16456 1 1
31 1 13.3714 2.67429 0.891429 0 0 0 1 2
32 1 14.2598 1.7931 1.80433 2.34487 -4.95002 -0.318803 1 1
33 1 14.2629 0 0 0 0 0 1 3
34 1 16.0457 1.78286 0 0 0 0 1 3
35 1 15.1543 0.891429 0.891429 0 0 0 1 2
36 1 15.1685 2.6823 2.70077 -5.95566 0.145452 0.840033 1 1
37 1 16.9456 0.888089 2.65606 -1.03429 -5.51122 4.84504 1 1
38 1 16.9371 2.67429 0.891429 0 0 0 1 2
39 1 16.0648 21.3736 1.78892 5.01197 5.99049 -4.13729 1 1
40 1 17.8376 1.78358 1.77397 1.76877 6.68409 0.0601133 1 1
41 1 17.8286 0 0 0 0 0 1 3
42 1 19.6114 1.78286 0 0 0 0 1 3
43 1 18.72 0.891429 0.891429 0 0 0 1 2
44 1 18.7323 2.72403 2.65068 -0.310811 1.26687 -0.163729 1 1
45 1 20.5341 0.912815 2.63202 0.478116 -0.0989216 -6.52992 1 1
46 1 20.5029 2.67429 0.891429 0 0 0 1 2
47 1 0 3.56572 0 0 0 0 1 3
48 1 1.78286 5.34857 0 0 0 0 1 3
49 1 0.891429 4.45714 0.891429 0 0 0 1 2
50 1 0.890956 6.22073 2.6962 6.52946 2.40016 0.42958 1 1
51 1 2.67149 4.46444 2.6971 3.66706 5.92143 -4.05244 1 1
52 1 2.67429 6.24 0.891429 0 0 0 1 2
53 1 3.56009 5.33623 1.82326 -2.72393 1.76589 4.49615 1 1
54 1 5.36712 3.56916 1.76384 -0.0859291 0.981692 2.77003 1 1
55 1 3.56572 3.56572 0 0 0 0 1 3
56 1 5.34857 5.34857 0 0 0 0 1 3
57 1 4.45714 4.45714 0.891429 0 0 0 1 2
58 1 4.4382 6.21666 2.65629 -6.49828 4.27043 -1.69629 1 1
59 1 6.27979 4.44285 2.66892 1.37934 0.584557 -3.48521 1 1
60 1 6.24 6.24 0.891429 0 0 0 1 2
61 1 5.34029 7.09485 1.75983 1.49523 2.53301 8.50994 1 1
62 1 7.16432 5.39217 1.72949 3.65073 3.06376 1.70123 1 1
63 1 7.13143 3.56572 0 0 0 0 1 3
64 1 8.91768 3.57671 1.79445 8.23845 0.0793942 4.12367 1 1
65 1 8.02286 4.45714 0.891429 0 0 0 1 2
66 1 8.04114 6.23291 2.66796 -5.95107 -0.0414849 3.39154 1 1
67 1 8.91429 5.34857 0 0 0 0 1 3
68 1 9.77325 4.47399 2.69794 -5.90692 -1.64162 -2.40152 1 1
69 1 9.80572 6.24 0.891429 0 0 0 1 2
70 1 10.7263 5.36084 1.79779 -3.1771 -0.628451 -3.95192 1 1
71 1 12.4969 3.5623 1.78773 -2.56527 0.936245 2.3752 1 1
72 1 10.6971 3.56572 0 0 0 0 1 3
73 1 12.48 5.34857 0 0 0 0 1 3
74 1 11.5886 4.45714 0.891429 0 0 0 1 2
75 1 11.5954 6.28333 2.66025 1.08577 3.66156 -1.15848 1 1
76 1 13.3541 4.47958 2.67907 -8.82817 -2.20455 -8.84201 1 1
77 1 13.3714 6.24 0.891429 0 0 0 1 2
78 1 14.267 5.34663 1.77641 -3.55476 5.5211 1.42591 1 1
79 1 16.0692 3.56689 1.76031 4.1712 -1.61659 -6.74078 1 1
80 1 14.2629 3.56572 0 0 0 0 1 3
81 1 16.0457 5.34857 0 0 0 0 1 3
82 1 15.1543 4.45714 0.891429 0 0 0 1 2
83 1 15.1817 6.24802 2.6819 -5.70286 -0.0429011 4.66486 1 1
84 1 16.9203 4.50453 2.64409 -4.98558 5.9447 -4.33425 1 1
85 1 16.9371 6.24 0.891429 0 0 0 1 2
86 1 17.8388 5.37869 1.7906 1.31542 -5.87798 0.0568715 1 1
87 1 19.6037 3.58678 1.72742 -1.85803 -4.20759 0.92414 1 1
88 1 -0.00829475 5.35348 1.76262 -2.16313 -1.98569 2.49628 1 1
89 1 17.8286 3.56572 0 0 0 0 1 3
90 1 19.6114 5.34857 0 0 0 0 1 3
91 1 18.72 4.45714 0.891429 0 0 0 1 2
92 1 18.7204 6.29556 2.68706 1.6585 3.81333 0.155682 1 1
93 1 20.5344 4.42879 2.65753 1.48188 3.40326 0.537872 1 1
94 1 20.5029 6.24 0.891429 0 0 0 1 2
95 1 19.5944 7.17549 1.81607 -2.68535 -4.22475 -0.223262 1 1
96 1 1.80873 7.10661 1.76628 9.61752 -5.22715 1.37555 1 1
97 1 0 7.13143 0 0 0 0 1 3
98 1 0.891429 8.02286 0.891429 0 0 0 1 2
99 1 2.67989 8.02409 2.68718 0.355143 -1.41788 5.03408 1 1
100 1 1.78286 8.91429 0 0 0 0 1 3
101 1 0.935742 9.83043 2.69687 0.392322 7.41396 0.142122 1 1
102 1 2.67429 9.80572 0.891429 0 0 0 1 2
103 1 1.80348 10.7247 1.81503 -0.32152 -1.63303 -0.512105 1 1
104 1 3.56407 8.94691 1.78843 -2.66302 -0.398521 1.10749 1 1
105 1 3.56572 7.13143 0 0 0 0 1 3
106 1 4.45714 8.02286 0.891429 0 0 0 1 2
107 1 6.21151 8.02333 2.68189 -3.80524 -7.83386 2.51087 1 1
108 1 5.34857 8.91429 0 0 0 0 1 3
109 1 4.41177 9.79603 2.66892 -1.399 -5.82886 -1.29015 1 1
110 1 6.24 9.80572 0.891429 0 0 0 1 2
111 1 7.10873 8.92966 1.78839 -7.36307 3.68996 7.08893 1 1
112 1 8.95378 7.11728 1.81147 0.0755708 4.73572 10.5148 1 1
113 1 7.13143 7.13143 0 0 0 0 1 3
114 1 8.02286 8.02286 0.891429 0 0 0 1 2
115 1 9.82467 8.01651 2.67142 -8.97871 5.05165 -0.367867 1 1
116 1 8.01143 9.81649 2.67876 -6.00209 0.764012 -3.60573 1 1
117 1 8.91429 8.91429 0 0 0 0 1 3
118 1 9.80572 9.80572 0.891429 0 0 0 1 2
119 1 10.7199 8.8973 1.76712 0.421299 4.62344 11.6083 1 1
120 1 12.4882 7.14167 1.79121 2.17465 -1.19733 1.73775 1 1
121 1 10.6971 7.13143 0 0 0 0 1 3
122 1 11.5886 8.02286 0.891429 0 0 0 1 2
123 1 13.3981 8.03462 2.64534 -7.39779 -2.68478 0.930108 1 1
124 1 12.48 8.91429 0 0 0 0 1 3
125 1 11.6248 9.83168 2.6426 3.56694 -6.35528 -5.62982 1 1
126 1 13.3714 9.80572 0.891429 0 0 0 1 2
127 1 12.5024 10.6932 1.79385 -5.22644 -0.247157 2.64868 1 1
128 1 16.0261 7.1323 1.77333 -3.81049 0.108767 5.39683 1 1
129 1 14.2476 8.90216 1.77685 -1.40036 5.5426 9.57072 1 1
130 1 14.2629 7.13143 0 0 0 0 1 3
131 1 15.1543 8.02286 0.891429 0 0 0 1 2
132 1 16.9662 8.0114 2.64738 -7.14586 0.607027 2.6219 1 1
133 1 16.0457 8.91429 0 0 0 0 1 3
134 1 15.1423 9.79627 2.64713 -2.8734 -3.44676 6.50617 1 1
135 1 16.9371 9.80572 0.891429 0 0 0 1 2
136 1 16.037 10.7021 1.74931 -0.973165 -3.53255 -3.09608 1 1
137 1 17.8454 8.94621 1.7582 3.98954 0.605879 5.15998 1 1
138 1 0.032602 8.93342 1.80642 -7.1053 0.638728 3.01019 1 1
139 1 17.8286 7.13143 0 0 0 0 1 3
140 1 18.72 8.02286 0.891429 0 0 0 1 2
141 1 20.4753 8.10061 2.69076 -1.93906 5.05834 -2.63078 1 1
142 1 19.6114 8.91429 0 0 0 0 1 3
143 1 18.7146 9.83676 2.66905 6.55416 -2.58028 3.61245 1 1
144 1 20.5029 9.80572 0.891429 0 0 0 1 2
145 1 0 10.6971 0 0 0 0 1 3
146 1 1.78286 12.48 0 0 0 0 1 3
147 1 0.891429 11.5886 0.891429 0 0 0 1 2
148 1 2.67415 11.6118 2.71052 1.15667 -5.25903 6.27525 1 1
149 1 0.903622 13.3793 2.71861 -0.231852 -1.54825 -3.82093 1 1
150 1 2.67429 13.3714 0.891429 0 0 0 1 2
151 1 -0.0276155 12.5008 1.81259 -8.62348 3.24786 12.7632 1 1
152 1 5.34694 10.6844 1.77003 4.84713 -7.0108 -1.839 1 1
153 1 3.55947 12.4898 1.76692 -3.96666 -4.44684 -3.93937 1 1
154 1 3.56572 10.6971 0 0 0 0 1 3
155 1 5.34857 12.48 0 0 0 0 1 3
156 1 4.45714 11.5886 0.891429 0 0 0 1 2
157 1 6.25064 11.5625 2.64698 7.98714 4.72564 -1.81286 1 1
158 1 4.42708 13.3742 2.68325 -1.12621 -2.06091 4.70386 1 1
159 1 6.24 13.3714 0.891429 0 0 0 1 2
160 1 5.3526 14.2501 1.81424 6.28936 -4.34544 -8.06512 1 1
161 1 8.95118 10.6806 1.7808 3.24511 1.4028 8.71432 1 1
162 1 7.13094 12.4601 1.78043 5.87975 -5.1955 0.204977 1 1
163 1 7.13143 10.6971 0 0 0 0 1 3
164 1 8.02286 11.5886 0.891429 0 0 0 1 2
165 1 8.91429 12.48 0 0 0 0 1 3
166 1 9.87513 11.5329 2.67459 2.75969 -1.74274 -2.41173 1 1
167 1 8.02057 13.3453 2.72104 -3.42287 -4.31322 -4.95648 1 1
168 1 9.80572 13.3714 0.891429 0 0 0 1 2
169 1 10.6923 12.4756 1.78702 10.1669 -3.13204 -9.75609 1 1
170 1 10.6971 10.6971 0 0 0 0 1 3
171 1 12.48 12.48 0 0 0 0 1 3
172 1 11.5886 11.5886 0.891429 0 0 0 1 2
173 1 13.432 11.5986 2.6622 -1.10173 -1.05824 0.555078 1 1
174 1 11.6548 13.3896 2.66266 1.48851 0.730012 0.892391 1 1
175 1 13.3714 13.3714 0.891429 0 0 0 1 2
176 1 12.4974 14.273 1.73341 -1.49274 -1.13917 -2.83283 1 1
177 1 14.3049 12.4808 1.78458 2.8753 7.95403 9.10349 1 1
178 1 14.2629 10.6971 0 0 0 0 1 3
179 1 16.0457 12.48 0 0 0 0 1 3
180 1 15.1543 11.5886 0.891429 0 0 0 1 2
181 1 16.9286 11.6082 2.66261 -2.73581 1.64192 -5.11299 1 1
182 1 15.2159 13.3453 2.68213 0.29582 5.14887 0.145675 1 1
183 1 16.9371 13.3714 0.891429 0 0 0 1 2
184 1 17.8249 12.482 1.79274 7.56336 -2.7596 1.82515 1 1
185 1 19.5902 10.703 1.80861 0.553773 -2.47316 2.33388 1 1
186 1 17.8286 10.6971 0 0 0 0 1 3
187 1 19.6114 12.48 0 0 0 0 1 3
188 1 18.72 11.5886 0.891429 0 0 0 1 2
189 1 20.4874 11.5398 2.69425 7.93603 5.44391 1.48999 1 1
190 1 18.7082 13.4442 2.69128 1.61846 -3.69097 -0.114957 1 1
191 1 20.5029 13.3714 0.891429 0 0 0 1 2
192 1 19.584 14.2879 1.77961 1.05626 2.87043 5.35505 1 1
193 1 1.7905 14.2729 1.79607 -5.6027 3.0001 -1.25237 1 1
194 1 0 14.2629 0 0 0 0 1 3
195 1 1.78286 16.0457 0 0 0 0 1 3
196 1 0.891429 15.1543 0.891429 0 0 0 1 2
197 1 0.868953 16.9136 2.65378 10.0037 -0.448104 -4.58136 1 1
198 1 2.68373 15.1754 2.73315 3.87513 2.4522 1.84587 1 1
199 1 2.67429 16.9371 0.891429 0 0 0 1 2
200 1 0.0240152 16.0355 1.77509 0.21767 11.258 2.99744 1 1
201 1 3.59131 16.0485 1.83114 6.27052 -4.29658 3.3365 1 1
202 1 3.56572 14.2629 0 0 0 0 1 3
203 1 5.34857 16.0457 0 0 0 0 1 3
204 1 4.45714 15.1543 0.891429 0 0 0 1 2
205 1 4.46325 16.9931 2.72535 2.24796 3.23879 4.43738 1 1
206 1 6.23611 15.1573 2.69045 1.3613 -2.44952 -4.88738 1 1
207 1 6.24 16.9371 0.891429 0 0 0 1 2
208 1 7.10567 16.0467 1.783 3.53209 4.58584 0.742679 1 1
209 1 5.35878 17.8523 1.79006 -2.9292 -1.20768 -0.449645 1 1
210 1 8.93528 14.2597 1.77666 4.41674 0.761375 1.34155 1 1
211 1 7.13143 14.2629 0 0 0 0 1 3
212 1 8.02286 15.1543 0.891429 0 0 0 1 2
213 1 8.05243 16.9614 2.70506 4.04215 11.5955 -6.40894 1 1
214 1 8.91429 16.0457 0 0 0 0 1 3
215 1 9.83225 15.1611 2.62703 1.78328 -1.14524 -0.530727 1 1
216 1 9.80572 16.9371 0.891429 0 0 0 1 2
217 1 8.91415 17.8089 1.78785 -3.8047 -1.2434 2.16266 1 1
218 1 10.7313 16.0265 1.75154 -4.53166 0.82346 0.461594 1 1
219 1 10.6971 14.2629 0 0 0 0 1 3
220 1 12.48 16.0457 0 0 0 0 1 3
221 1 11.5886 15.1543 0.891429 0 0 0 1 2
222 1 11.5924 16.9326 2.6625 -1.44334 0.502413 4.6687 1 1
223 1 13.4044 15.1008 2.64527 2.45814 -2.00697 -3.61668 1 1
224 1 13.3714 16.9371 0.891429 0 0 0 1 2
225 1 12.5345 17.838 1.81096 5.92127 -0.111421 -1.18224 1 1
226 1 16.0857 14.2769 1.78107 3.6401 -13.6872 5.19854 1 1
227 1 14.2545 16.0546 1.77842 -3.19528 2.70778 4.58386 1 1
228 1 14.2629 14.2629 0 0 0 0 1 3
229 1 16.0457 16.0457 0 0 0 0 1 3
230 1 15.1543 15.1543 0.891429 0 0 0 1 2
231 1 15.1558 16.9251 2.65035 4.06561 4.32481 8.66851 1 1
232 1 16.9379 15.178 2.71717 -2.99655 6.51946 6.422 1 1
233 1 16.9371 16.9371 0.891429 0 0 0 1 2
234 1 17.8113 16.0827 1.78943 -2.65817 -7.10191 -3.35368 1 1
235 1 17.8286 14.2629 0 0 0 0 1 3
236 1 19.6114 16.0457 0 0 0 0 1 3
237 1 18.72 15.1543 0.891429 0 0 0 1 2
238 1 18.7103 16.9717 2.6945 1.19561 -4.83102 0.74089 1 1
239 1 20.5442 15.1457 2.62556 3.14019 -2.63103 -4.86988 1 1
240 1 20.5029 16.9371 0.891429 0 0 0 1 2
241 1 19.5809 17.797 1.78787 -10.455 -2.49743 8.66524 1 1
242 1 1.75097 17.8215 1.79585 -1.23887 0.512284 -1.62594 1 1
243 1 0 17.8286 0 0 0 0 1 3
244 1 1.78286 19.6114 0 0 0 0 1 3
245 1 0.891429 18.72 0.891429 0 0 0 1 2
246 1 0.908713 20.5126 2.68152 3.23918 0.519538 -2.43058 1 1
247 1 2.69993 18.6992 2.66899 -1.138 -2.35576 2.5621 1 1
248 1 2.67429 20.5029 0.891429 0 0 0 1 2
249 1 3.52714 19.5952 1.79504 -2.11332 -5.6056 -1.74312 1 1
250 1 21.4248 19.6074 1.7953 8.1412 0.590744 -6.0646 1 1
251 1 5.2867 0.0312804 1.80558 5.31491 -2.08749 3.22567 1 1
252 1 3.56572 17.8286 0 0 0 0 1 3
253 1 5.34857 19.6114 0 0 0 0 1 3
254 1 4.45714 18.72 0.891429 0 0 0 1 2
255 1 4.47074 20.5348 2.697 -2.77788 2.05487 1.10558 1 1
256 1 6.27156 18.7457 2.6791 -2.3279 -3.89648 4.27297 1 1
257 1 6.24 20.5029 0.891429 0 0 0 1 2
258 1 7.1037 19.626 1.75 1.82146 -1.21444 7.45007 1 1
259 1 7.13143 17.8286 0 0 0 0 1 3
260 1 8.02286 18.72 0.891429 0 0 0 1 2
261 1 8.04211 20.5472 2.63869 -0.36715 0.911547 -0.73598 1 1
262 1 8.91429 19.6114 0 0 0 0 1 3
263 1 9.84559 18.7234 2.64248 3.82393 6.35273 -0.860459 1 1
264 1 9.80572 20.5029 0.891429 0 0 0 1 2
265 1 10.7074 19.6382 1.74666 10.7161 7.07314 -3.18355 1 1
266 1 12.5115 21.384 1.80122 -5.93435 1.68315 -5.11881 1 1
267 1 10.6971 17.8286 0 0 0 0 1 3
268 1 12.48 19.6114 0 0 0 0 1 3
269 1 11.5886 18.72 0.891429 0 0 0 1 2
270 1 11.6192 20.4674 2.63705 -5.08835 3.16679 0.592864 1 1
271 1 13.3701 18.746 2.74236 -5.15638 7.12174 -2.17571 1 1
272 1 13.3714 20.5029 0.891429 0 0 0 1 2
273 1 14.2732 19.5645 1.79713 4.98438 1.09833 5.24365 1 1
274 1 16.0283 17.8129 1.7723 -0.524845 3.29115 -1.20191 1 1
275 1 14.2629 17.8286 0 0 0 0 1 3
276 1 16.0457 19.6114 0 0 0 0 1 3
277 1 15.1543 18.72 0.891429 0 0 0 1 2
278 1 15.1579 20.4881 2.66041 5.21869 1.54579 1.8692 1 1
279 1 16.957 18.7041 2.68869 -4.78233 -0.0979774 -2.50771 1 1
280 1 16.9371 20.5029 0.891429 0 0 0 1 2
281 1 19.609 0.0335376 1.7514 8.81942 -4.82915 -6.60165 1 1
282 1 17.794 19.6446 1.78669 -1.70857 1.77885 -2.93263 1 1
283 1 17.8286 17.8286 0 0 0 0 1 3
284 1 19.6114 19.6114 0 0 0 0 1 3
285 1 18.72 18.72 0.891429 0 0 0 1 2
286 1 18.6934 20.5148 2.69888 8.19362 -6.89516 -0.501709 1 1
287 1 20.5046 18.6959 2.68884 9.14792 5.06475 -4.07746 1 1
288 1 20.5029 20.5029 0.891429 0 0 0 1 2
289 1 1.82413 1.74199 3.55752 3.07858 -2.95783 0.989627 1 1
290 1 0.899827 0.892084 4.49256 -6.13508 7.03079 -2.99939 1 1
291 1 2.69915 2.67247 4.45816 -4.71651 7.10523 -1.81991 1 1
292 1 1.77857 21.4078 5.37168 -6.64646 0.101749 10.93 1 1
293 1 1.78292 3.55889 5.33362 -7.20907 4.42201 5.51699 1 1
294 1 -0.0383052 1.77778 5.36285 -8.50561 8.00257 11.2387 1 1
295 1 21.3804 0.0224203 3.56629 3.9295 2.2498 1.34536 1 1
296 1 3.54855 1.79388 5.38486 -0.0785476 -7.37458 4.78275 1 1
297 1 5.36921 1.79858 3.58901 -3.76991 0.394756 -6.46529 1 1
298 1 4.43415 0.892594 4.46418 -2.91459 -3.22825 -7.55412 1 1
299 1 6.24477 0.850624 6.27904 4.79527 3.21078 -3.36482 1 1
300 1 6.26756 2.70936 4.49442 6.72346 -0.328683 4.31774 1 1
301 1 3.56866 21.4021 3.61005 0.879248 4.16073 1.23479 1 1
302 1 7.11105 21.3702 3.55549 3.39955 3.1234 -1.89907 1 1
303 1 5.37084 21.3798 5.33154 4.89918 2.74408 3.54617 1 1
304 1 7.13808 3.58861 3.59722 -0.864408 -2.92884 -4.96709 1 1
305 1 7.20653 1.77169 5.35633 -0.854684 -0.776233 10.5073 1 1
306 1 8.92783 1.74091 3.58151 1.01228 0.398475 -0.227253 1 1
307 1 8.00892 0.867727 4.44989 5.74938 6.21515 12.5526 1 1
308 1 8.06169 2.60853 6.27791 5.7545 -0.157515 7.02284 1 1
309 1 9.77181 0.910799 6.28853 7.39445 -3.28584 -0.370173 1 1
310 1 9.80476 2.66782 4.43969 3.32262 10.521 -5.57765 1 1
311 1 10.7095 1.7765 5.32957 4.17689 7.9138 0.367864 1 1
312 1 12.4771 1.75685 3.53507 -5.0635 -5.07465 -3.77792 1 1
313 1 11.5921 0.842707 4.42187 0.246963 1.5819 -0.76695 1 1
314 1 11.6397 2.68205 6.17616 -3.36923 -7.29617 -3.00549 1 1
315 1 13.3665 2.64948 4.42119 -6.9963 5.84122 -8.77207 1 1
316 1 13.3846 0.880409 6.15184 -7.2131 1.89139 2.11794 1 1
317 1 12.5528 3.56227 5.29571 6.8375 -0.249228 8.2039 1 1
318 1 14.2801 1.78278 5.31119 4.83852 -3.29796 4.42339 1 1
319 1 12.4785 21.3836 5.3402 -5.05947 6.14876 4.08766 1 1
320 1 14.2462 3.56898 3.5501 -0.539732 8.91024 -11.6221 1 1
321 1 16.0682 1.75595 3.50482 4.60532 9.76013 -4.37701 1 1
322 1 15.1376 0.886805 4.43162 4.6671 -2.62466 4.99052 1 1
323 1 15.1844 2.68894 6.23527 -3.28355 -12.0038 -2.76041 1 1
324 1 16.9735 2.68033 4.4441 2.48584 3.24881 -1.4928 1 1
325 1 17.8594 1.75899 5.28783 7.30914 -2.6063 8.73133 1 1
326 1 16.0498 21.3804 5.32204 0.323709 -1.52152 6.86334 1 1
327 1 19.6176 1.81134 3.51146 -2.88661 1.58762 5.73999 1 1
328 1 18.7241 0.857377 4.39319 2.24916 2.86336 0.0821992 1 1
329 1 20.5045 2.66392 4.44664 -1.70863 -3.9788 5.31622 1 1
330 1 17.8572 21.3536 3.56226 4.85678 6.49295 4.23146 1 1
331 1 19.5818 21.3436 5.37222 -0.917366 -1.23525 -0.731921 1 1
332 1 21.3687 3.53568 3.54011 8.60005 13.2494 -3.8729 1 1
333 1 1.81779 5.34694 3.5866 -1.25868 0.777801 2.3512 1 1
334 1 0.869377 4.40369 4.37809 7.85398 -3.00673 -0.414671 1 1
335 1 2.70054 4.45794 6.21137 4.13031 -10.4566 3.80506 1 1
336 1 2.71363 6.2098 4.44129 -1.84858 9.60299 1.88976 1 1
337 1 3.56218 3.58853 3.57527 -1.56911 1.31656 -3.22994 1 1
338 1 -0.000285453 5.33601 5.30254 -2.76637 7.10761 6.07262 1 1
339 1 3.58828 5.34456 5.35737 5.75078 0.506031 -4.33257 1 1
340 1 5.34793 3.5675 5.36853 11.2703 -4.21912 -1.49191 1 1
341 1 5.39717 5.31596 3.52832 2.58576 2.87775 -1.39955 1 1
342 1 4.44584 4.43098 4.45683 -7.33079 -2.01379 2.72552 1 1
343 1 4.50748 6.24384 6.26957 -3.59048 6.63511 0.482236 1 1
344 1 6.24203 6.26387 4.45971 -0.068884 -6.47628 2.20791 1 1
345 1 7.13754 5.33664 5.34928 2.31971 0.206743 1.48129 1 1
346 1 5.36143 7.153 5.40853 -0.0169301 6.51102 -0.497265 1 1
347 1 6.21316 4.45535 6.22613 3.49431 -4.48615 -10.9758 1 1
348 1 8.94143 3.58923 5.35563 3.95603 4.14738 7.1804 1 1
349 1 10.6782 3.58818 3.61498 2.50577 3.85501 -2.56731 1 1
350 1 8.91314 5.37125 3.56076 4.35827 -1.36061 -1.4421 1 1
351 1 8.01852 4.52253 4.4799 4.14022 2.69334 -2.94384 1 1
352 1 8.01492 6.2478 6.25272 -1.76713 1.85868 2.26667 1 1
353 1 9.7958 4.49085 6.24627 -0.166704 -0.126321 -0.795628 1 1
354 1 9.80286 6.24771 4.45722 5.62326 -0.476179 3.78188 1 1
355 1 10.7 5.38103 5.3868 -2.85962 9.76635 3.01786 1 1
356 1 12.5165 5.34864 3.55477 -0.0562276 -4.65828 3.17048 1 1
357 1 11.6064 4.4888 4.48394 -2.63212 -4.12165 -5.58572 1 1
358 1 13.3608 6.23947 4.43643 -1.46508 4.08651 -1.12947 1 1
359 1 14.3 5.32565 5.32667 -6.35069 -7.46136 -7.95689 1 1
360 1 16.0391 3.55519 5.34335 -1.24518 6.47971 -2.05927 1 1
361 1 17.8728 3.59353 3.55252 -6.9865 0.560426 5.77527 1 1
362 1 16.0454 5.31801 3.53833 3.28542 -2.22635 6.08245 1 1
363 1 15.1601 4.4221 4.42706 -3.81901 -8.12155 6.21063 1 1
364 1 16.9206 6.24226 4.40947 0.855564 -2.49917 -2.52815 1 1
365 1 16.9182 4.47261 6.19291 -1.91718 2.25635 -3.78217 1 1
366 1 16.0586 7.16399 5.30943 7.5868 -3.09774 5.19656 1 1
367 1 15.1545 6.2824 6.2109 -3.31347 0.66553 -5.29144 1 1
368 1 19.6478 3.57165 5.29116 3.36135 2.03078 -3.3076 1 1
369 1 17.8093 5.38789 5.29951 -3.46416 -1.06477 3.34274 1 1
370 1 19.6364 5.39077 3.54415 8.57732 -2.10191 5.31714 1 1
371 1 18.7195 4.47824 4.4649 3.137 -3.43465 2.36048 1 1
372 1 20.5262 4.42951 6.21547 -7.38282 -3.34121 -5.83065 1 1
373 1 20.5288 6.28659 4.45502 -2.28076 2.7172 -0.77151 1 1
374 1 19.6255 7.16278 5.32651 -4.10459 2.49663 6.60876 1 1
375 1 0.0257116 7.15896 3.54802 -3.52289 -3.99527 -4.1353 1 1
376 1 1.82545 7.10844 5.31926 2.4644 4.41288 4.69018 1 1
377 1 1.75769 8.88357 3.59718 8.79459 -7.66234 3.5667 1 1
378 1 0.906965 8.05229 4.43538 7.84965 3.35724 -4.66803 1 1
379 1 2.6798 7.96053 6.19877 5.17355 6.16173 2.81772 1 1
380 1 0.873257 9.81886 6.22517 0.00198506 2.40901 1.3642 1 1
381 1 2.67499 9.82495 4.39946 -6.66189 -0.699353 -1.67439 1 1
382 1 21.3598 8.90283 5.37958 0.977124 -1.0387 -4.58278 1 1
383 1 1.70706 10.6491 5.30435 -0.590421 -3.67633 2.44106 1 1
384 1 3.59786 7.09567 3.54364 -10.3006 -0.14247 -5.11919 1 1
385 1 7.13106 7.14561 3.57938 0.132192 -10.1756 1.64778 1 1
386 1 3.55787 10.7027 3.59456 2.72835 3.42372 1.49687 1 1
387 1 3.53417 8.88083 5.38536 -3.41828 11.2496 1.13598 1 1
388 1 5.29984 8.91162 3.59508 5.78416 7.56188 -0.0393977 1 1
389 1 4.46017 8.02507 4.47391 -3.26485 -2.35633 14.487 1 1
390 1 4.46536 9.76647 6.29873 0.942584 4.18091 4.61445 1 1
391 1 6.20037 9.77775 4.45408 -3.22622 -1.11911 -5.10369 1 1
392 1 8.93452 7.14476 5.35751 -1.64289 -0.74118 1.81589 1 1
393 1 7.15734 8.9145 5.33657 -2.1394 0.407238 0.499676 1 1
394 1 8.936 8.91887 3.55726 2.44547 2.02968 6.28297 1 1
395 1 8.04466 8.05578 4.45131 -2.5343 1.85829 4.61817 1 1
396 1 9.86408 9.77007 4.4293 -6.36834 -0.36431 5.92677 1 1
397 1 10.7496 8.88192 5.34017 -7.93153 1.4954 0.635286 1 1
398 1 10.7202 10.685 3.50525 -6.76055 2.32655 2.24072 1 1
399 1 9.8017 8.02221 6.28301 4.05375 2.29444 -0.88643 1 1
400 1 12.5203 7.13808 5.33163 -8.63939 -2.48034 3.35626 1 1
401 1 10.6844 7.17564 3.57353 -1.45198 -1.92671 4.3327 1 1
402 1 12.5249 8.94149 3.56528 -0.844926 10.0117 0.798529 1 1
403 1 11.6142 7.99842 4.44551 4.1043 7.50905 -2.68661 1 1
404 1 13.3592 9.82519 4.4405 -0.0355187 6.11703 -0.427447 1 1
405 1 14.3045 7.14586 3.53648 6.10238 -2.69284 -0.852961 1 1
406 1 14.2825 8.9243 5.2993 0.135959 -1.16884 -1.95039 1 1
407 1 17.8214 7.14619 3.57946 6.503 -5.44641 -0.864595 1 1
408 1 16.0458 8.94994 3.57347 0.143763 -6.15981 7.19805 1 1
409 1 15.1575 8.06769 4.43667 7.81852 7.08073 8.80613 1 1
410 1 16.9059 9.85148 4.42975 -0.377875 5.58265 -2.46966 1 1
411 1 16.0603 10.7481 5.3622 8.60947 3.28386 -0.94685 1 1
412 1 16.9588 8.08348 6.18461 -9.13591 -8.55846 -2.28054 1 1
413 1 17.8153 8.94726 5.32594 7.41899 -2.76949 0.4124 1 1
414 1 19.5872 8.96348 3.58673 0.934236 -4.5373 1.12297 1 1
415 1 18.6671 8.09463 4.42021 -2.97902 0.97155 -1.99832 1 1
416 1 18.7128 9.82456 6.25638 1.69789 0.0825435 4.85406 1 1
417 1 20.4868 9.84137 4.45504 3.42199 3.44543 3.60486 1 1
418 1 20.4792 8.02297 6.24589 4.70324 1.66392 2.63027 1 1
419 1 19.5783 10.7375 5.3598 -10.0594 -0.114116 4.43812 1 1
420 1 -0.00106848 10.7421 3.59048 -1.99228 2.81927 3.93206 1 1
421 1 1.80078 12.5196 3.58085 -4.69363 4.69416 -6.27827 1 1
422 1 0.858086 11.6253 4.44933 3.80053 0.359076 5.73642 1 1
423 1 2.68137 11.5573 6.28209 -7.69164 2.58956 -1.62987 1 1
424 1 0.893293 13.3397 6.29595 5.07171 6.00496 1.2878 1 1
425 1 2.70271 13.4192 4.51903 5.35122 -5.82359 -1.30032 1 1
426 1 -0.00819773 12.465 5.36201 -1.53537 1.92504 0.750557 1 1
427 1 5.33377 10.6683 5.37278 7.90612 2.91104 -4.19709 1 1
428 1 3.54405 14.2587 3.59634 3.09999 -0.787202 -5.88613 1 1
429 1 3.60452 12.4473 5.36465 0.52116 -5.20366 2.35052 1 1
430 1 5.30268 12.4646 3.55885 0.630377 4.49849 -1.27681 1 1
431 1 4.4588 11.5565 4.46417 2.50542 4.49615 8.12993 1 1
432 1 6.2026 13.4345 4.48316 -5.31679 -4.3597 -1.44289 1 1
433 1 7.13029 14.2653 3.62342 -2.80312 -0.242666 -1.74558 1 1
434 1 6.2368 11.5622 6.26312 -0.962615 3.26902 -0.917985 1 1
435 1 7.12005 10.6481 3.54443 3.18593 1.68495 -3.37436 1 1
436 1 7.10982 12.448 5.3774 -0.139297 -3.05956 -4.71086 1 1
437 1 8.88021 10.662 5.36694 3.29184 -1.29796 -3.98996 1 1
438 1 8.93196 12.4249 3.57374 5.80587 13.1016 -2.81367 1 1
439 1 8.02955 11.5847 4.47814 2.46997 -4.4602 10.3627 1 1
440 1 9.82793 11.5914 6.29109 -4.39319 0.267203 -3.41483 1 1
441 1 8.10777 13.3354 6.20237 -5.15003 -4.86654 5.67217 1 1
442 1 9.82336 13.3073 4.40688 6.02196 4.27975 -3.07669 1 1
443 1 10.7241 14.2568 3.50486 5.60051 -6.24597 3.03841 1 1
444 1 12.4964 10.7335 5.35342 -1.39494 2.19256 7.78467 1 1
445 1 10.6881 12.4495 5.37739 0.948762 -4.75611 11.6767 1 1
446 1 12.513 12.5096 3.55439 3.68434 -3.78652 0.806152 1 1
447 1 11.611 11.5912 4.45928 5.4025 2.31782 -1.56664 1 1
448 1 13.4365 11.598 6.23884 8.81784 -3.26073 9.71558 1 1
449 1 11.5853 13.3498 6.26752 9.44843 -5.07342 -6.81139 1 1
450 1 13.4092 13.3644 4.48778 -6.04395 4.86451 1.1005 1 1
451 1 14.2594 10.6944 3.53455 2.6264 2.22811 3.41307 1 1
452 1 14.2882 12.469 5.32892 -0.464747 -3.80641 5.77316 1 1
453 1 16.0942 12.4999 3.56167 -5.86856 3.77807 1.99967 1 1
454 1 15.1595 11.5681 4.38236 -5.80435 -4.99097 -5.42581 1 1
455 1 16.9147 11.6281 6.18896 -0.465685 7.31936 4.09436 1 1
456 1 16.9745 13.4017 4.50067 -3.48003 -2.92561 2.42079 1 1
457 1 17.8275 12.4953 5.36303 -5.65439 1.22485 1.2491 1 1
458 1 15.1801 13.3632 6.19804 6.54871 -5.79719 -3.82666 1 1
459 1 17.8194 10.7435 3.50412 -3.4631 -1.49946 8.36019 1 1
460 1 19.5857 12.5338 3.54685 1.85543 -4.77743 1.01093 1 1
461 1 18.6931 11.6026 4.45217 1.06081 2.04402 1.838 1 1
462 1 18.7493 13.3372 6.24094 -2.94599 3.74648 -0.182461 1 1
463 1 20.5379 13.4371 4.39943 2.44655 2.45528 6.30668 1 1
464 1 20.5137 11.6133 6.24987 -10.5109 3.38535 6.64229 1 1
465 1 1.7825 14.2706 5.43265 5.47056 -3.04358 0.85461 1 1
466 1 1.75425 16.0274 3.60483 5.0696 -4.91004 4.23287 1 1
467 1 0.9257 15.1293 4.46135 8.32941 5.70141 0.466713 1 1
468 1 2.72 15.1961 6.2749 0.936459 3.9811 -7.31909 1 1
469 1 2.64459 16.9238 4.47875 7.55582 -1.56454 -0.987884 1 1
470 1 21.3671 16.0778 5.39037 0.417632 0.249548 3.07218 1 1
471 1 0.0328458 14.3136 3.54029 1.97172 2.03317 2.69939 1 1
472 1 1.804 17.853 5.32552 8.61359 1.34283 5.41126 1 1
473 1 5.30106 14.3187 5.35405 -4.53357 0.958085 -0.758832 1 1
474 1 3.55754 16.0743 5.37867 2.00032 1.49692 6.08978 1 1
475 1 5.36347 16.074 3.59439 -0.456917 2.52616 0.240963 1 1
476 1 4.41515 15.1807 4.47324 4.94752 -5.73963 2.12648 1 1
477 1 4.46034 16.957 6.27417 1.4083 5.19333 -3.46698 1 1
478 1 6.24953 15.193 6.23905 0.478928 -0.141917 -1.07682 1 1
479 1 6.26521 16.9271 4.47516 -3.65634 4.19715 1.59061 1 1
480 1 7.17997 16.0945 5.34207 6.0857 -6.78524 3.30829 1 1
481 1 8.95857 14.2061 5.28994 -1.96277 4.00111 0.833829 1 1
482 1 8.94366 16.0218 3.55407 -9.46244 -1.18031 -1.12523 1 1
483 1 8.00907 15.132 4.43951 11.3311 0.477585 2.1197 1 1
484 1 8.02498 16.9533 6.22624 3.96921 -2.63883 -5.10817 1 1
485 1 9.79601 15.167 6.19739 0.183423 -1.26661 12.7468 1 1
486 1 9.84473 16.9573 4.44727 0.170443 -1.48977 -6.91405 1 1
487 1 10.6733 16.038 5.33625 0.617388 -4.9217 -0.451745 1 1
488 1 8.94102 17.8463 5.33507 -4.42403 7.66621 -3.56405 1 1
489 1 10.7425 17.8001 3.57024 3.77706 -0.477046 2.01463 1 1
490 1 12.4469 14.2031 5.34349 3.40812 3.38835 -0.532488 1 1
491 1 12.4762 16.009 3.56622 3.57997 -2.77725 -3.96017 1 1
492 1 11.6051 15.1564 4.43897 10.4793 -2.0041 -1.31778 1 1
493 1 11.5933 16.9318 6.2415 -2.30008 -1.07122 6.48248 1 1
494 1 13.3741 16.9006 4.41048 -0.0065608 -3.94659 2.6309 1 1
495 1 13.3286 15.1412 6.25703 3.96139 0.876667 1.01795 1 1
496 1 12.4693 17.8336 5.31332 7.62755 3.08583 8.40935 1 1
497 1 14.3198 14.2122 3.56097 2.92146 -2.71796 0.411586 1 1
498 1 16.088 14.2671 5.33617 -2.99354 -2.15261 7.52049 1 1
499 1 17.8076 14.3101 3.6052 4.26917 3.38794 2.4491 1 1
500 1 14.2338 16.0241 5.33469 -3.20109 -4.50624 -3.02646 1 1
501 1 14.2578 17.82 3.56243 8.38209 2.87659 8.6754 1 1
502 1 16.0451 16.0625 3.54971 -0.666774 2.1104 0.679024 1 1
503 1 15.1902 15.1029 4.44631 -2.15064 4.59919 -4.87526 1 1
504 1 16.9233 16.9192 4.45203 -3.88564 -6.75777 -5.09901 1 1
505 1 16.948 15.1532 6.232 -8.30367 5.50607 -0.841838 1 1
506 1 17.8639 16.0259 5.35212 0.131497 0.48177 4.97544 1 1
507 1 19.6384 14.2992 5.36191 0.512727 -5.62301 -2.6703 1 1
508 1 19.6526 16.0713 3.5729 -9.13138 -0.176451 4.8022 1 1
509 1 18.7684 15.1785 4.44024 -5.12695 -2.36165 -5.74831 1 1
510 1 20.5327 16.9471 4.46393 2.76335 -1.06303 -1.72434 1 1
511 1 19.6084 17.7906 5.36633 5.59966 3.87446 -1.03303 1 1
512 1 20.5024 15.1469 6.27215 0.149665 4.03152 1.74626 1 1
513 1 1.82267 19.6159 3.55209 -3.02953 -2.07985 -2.93075 1 1
514 1 0.93008 18.7422 4.43254 8.51673 -6.97553 -7.61358 1 1
515 1 0.858521 20.478 6.27591 4.0925 3.25639 -1.099 1 1
516 1 2.67039 20.4935 4.44306 5.87799 -2.41325 -1.60143 1 1
517 1 0.0232867 17.8034 3.55834 -1.56431 5.99748 0.567917 1 1
518 1 -0.0207263 19.6337 5.37416 -5.06655 10.2166 2.35161 1 1
519 1 2.66224 18.7253 6.28057 -12.9842 -5.16759 -1.81074 1 1
520 1 5.39178 17.8233 5.34215 -2.56226 -4.24796 -4.45218 1 1
521 1 3.5649 17.8537 3.56019 -3.20885 4.1908 6.97818 1 1
522 1 3.57893 19.5903 5.37469 -0.823806 2.10476 -1.00659 1 1
523 1 5.3595 19.6379 3.58598 4.71891 -1.79425 -3.21493 1 1
524 1 4.46967 18.7367 4.51231 -3.73884 0.458941 -3.30119 1 1
525 1 4.47272 20.525 6.27739 -4.10989 -0.43554 3.3471 1 1
526 1 6.25845 18.69 6.23479 5.77609 -0.668565 -3.46839 1 1
527 1 6.21281 20.4589 4.45871 -0.906447 1.67669 1.06418 1 1
528 1 7.1586 17.876 3.52814 -4.81446 7.47263 2.81709 1 1
529 1 7.12811 19.582 5.39808 2.93234 -6.35743 -7.08686 1 1
530 1 8.94116 21.3986 5.29449 6.78753 0.189791 9.64983 1 1
531 1 8.94351 19.6149 3.56629 -4.69208 6.19446 4.05119 1 1
532 1 8.03952 18.7131 4.50275 -5.42008 -2.27585 3.9385 1 1
533 1 8.05197 20.4695 6.26327 -8.99735 -1.8774 5.80493 1 1
534 1 9.82161 18.6888 6.25798 5.11822 9.63135 10.4733 1 1
535 1 9.83048 20.5346 4.47352 1.56212 -2.68082 -4.61837 1 1
536 1 10.6961 19.6134 5.3581 3.01926 -0.616331 -5.39378 1 1
537 1 10.6864 21.3556 3.53463 6.54169 -4.28357 -3.06218 1 1
538 1 12.4332 19.646 3.60902 0.416626 -7.23159 -3.50097 1 1
539 1 11.5837 18.7179 4.47678 0.544769 -9.41545 -2.59136 1 1
540 1 13.3185 18.6982 6.28388 -3.51989 -8.08949 -3.73375 1 1
541 1 13.3717 20.4616 4.48194 2.38315 -4.12113 -2.74018 1 1
542 1 16.0106 17.8208 5.38368 3.23721 -7.64798 12.9384 1 1
543 1 14.2783 -0.0180581 3.5711 -3.93737 -6.30002 -4.59746 1 1
544 1 14.286 19.5285 5.35715 -1.31084 -1.58504 7.95375 1 1
545 1 16.051 19.6316 3.53682 -3.91104 6.56347 -5.59584 1 1
546 1 15.1798 18.6949 4.47954 -1.62495 1.00012 -6.68498 1 1
547 1 16.9207 18.678 6.26218 -2.69403 6.24554 4.31765 1 1
548 1 16.9193 20.5017 4.44012 -2.63843 1.41013 -4.33519 1 1
549 1 17.7894 19.5996 5.32793 -8.68704 -3.11341 -2.21652 1 1
550 1 17.7794 17.807 3.60298 -1.6172 -1.35973 6.2307 1 1
551 1 19.6087 19.6038 3.58353 0.0349274 -1.41891 5.31031 1 1
552 1 18.6745 18.6901 4.47412 4.70082 0.475314 0.320698 1 1
553 1 18.6951 20.4277 6.22239 6.98242 -2.28077 -0.518002 1 1
554 1 20.4984 18.724 6.31014 3.98943 -2.73262 -3.99006 1 1
555 1 20.4908 20.4999 4.47008 4.07768 -7.49972 6.61521 1 1
556 1 2.69184 0.875175 6.28694 -4.86688 -4.56453 1.60784 1 1
557 1 0.93125 2.69107 6.27118 -0.537257 -1.76897 5.81994 1 1