ITEM: TIMESTEP
1350
ITEM: NUMBER OF ATOMS
2952
ITEM: BOX BOUNDS pp pp mm
0.0000000000000000e+00 2.1394294200000001e+01
0.0000000000000000e+00 2.1394294200000001e+01
-4.4571446250000002e-01 5.3485735500000004e+01
ITEM: ATOMS id type x y z vx vy vz v_is_diamond c_structure_type
1 1 0 0 0 0 0 0 1 3
2 1 1.78286 1.78286 0 0 0 0 1 3
3 1 0.891429 0.891429 0.891429 0 0 0 1 2
4 1 0.86463 2.6749 2.66616 0.394152 5.9107 1.69646 1 1
5 1 2.65209 0.915802 2.66088 -2.2306 7.24556 -1.27842 1 1
6 1 2.67429 2.67429 0.891429 0 0 0 1 2
7 1 21.3905 1.7552 1.77014 -0.562013 0.843341 -3.07746 1 1
8 1 1.79774 21.3807 1.74724 2.19625 4.89887 1.20156 1 1
9 1 1.75609 3.53512 1.78371 -2.19386 1.89947 7.67004 1 1
10 1 3.5637 1.80427 1.77536 -5.51967 12.2095 -4.68976 1 1
11 1 3.56572 0 0 0 0 0 1 3
12 1 5.34857 1.78286 0 0 0 0 1 3
13 1 4.45714 0.891429 0.891429 0 0 0 1 2
14 1 4.43828 2.6756 2.67083 2.43998 -5.99062 9.78023 1 1
15 1 6.25447 0.820685 2.65743 -2.07653 3.47693 -2.76678 1 1
16 1 6.24 2.67429 0.891429 0 0 0 1 2
17 1 7.13048 1.80334 1.77593 3.34562 0.469065 2.09493 1 1
18 1 7.13143 0 0 0 0 0 1 3
19 1 8.02286 0.891429 0.891429 0 0 0 1 2
20 1 8.05535 2.69394 2.6462 -7.05407 3.77415 -4.62586 1 1
21 1 8.91429 1.78286 0 0 0 0 1 3
22 1 9.80916 0.877477 2.64288 1.16259 3.64163 -5.90279 1 1
23 1 9.80572 2.67429 0.891429 0 0 0 1 2
24 1 8.89288 0.0258146 1.7689 -0.482111 -1.26841 2.27089 1 1
25 1 10.7035 1.79035 1.77211 4.47438 1.79234 -4.09777 1 1
26 1 10.6971 0 0 0 0 0 1 3
27 1 12.48 1.78286 0 0 0 0 1 3
28 1 11.5886 0.891429 0.891429 0 0 0 1 2
29 1 11.6028 2.64176 2.63121 -8.29021 -1.623 -2.59758 1 1
30 1 13.3583 0.878129 2.65419 13.8731 1.6338 -0.624353 1 1
31 1 13.3714 2.67429 0.891429 0 0 0 1 2
32 1 14.2199 1.76281 1.76445 -6.79085 -2.2126 -4.25928 1 1
33 1 14.2629 0 0 0 0 0 1 3
34 1 16.0457 1.78286 0 0 0 0 1 3
35 1 15.1543 0.891429 0.891429 0 0 0 1 2
36 1 15.1159 2.62424 2.64049 4.02672 -5.76669 2.2789 1 1
37 1 16.9358 0.913087 2.65176 -5.81364 4.90748 10.2545 1 1
38 1 16.9371 2.67429 0.891429 0 0 0 1 2
39 1 16.068 0.0332044 1.78557 -4.25885 2.65445 -0.486856 1 1
40 1 17.7937 1.75288 1.77904 -2.62388 -2.19254 -2.537 1 1
41 1 17.8286 0 0 0 0 0 1 3
42 1 19.6114 1.78286 0 0 0 0 1 3
43 1 18.72 0.891429 0.891429 0 0 0 1 2
44 1 18.6749 2.63802 2.66636 -7.03411 1.83527 0.292048 1 1
45 1 20.4979 0.866823 2.70652 0.938549 6.15174 2.43097 1 1
46 1 20.5029 2.67429 0.891429 0 0 0 1 2
47 1 0 3.56572 0 0 0 0 1 3
48 1 1.78286 5.34857 0 0 0 0 1 3
49 1 0.891429 4.45714 0.891429 0 0 0 1 2
50 1 0.86775 6.19598 2.64897 0.405716 2.07816 5.42193 1 1
51 1 2.6416 4.42054 2.64044 -4.37898 -4.13847 -0.854613 1 1
52 1 2.67429 6.24 0.891429 0 0 0 1 2
53 1 3.55935 5.32507 1.82593 -1.60281 -1.17616 -2.36015 1 1
54 1 5.33615 3.53092 1.81422 -4.04332 5.88156 -6.77961 1 1
55 1 3.56572 3.56572 0 0 0 0 1 3
56 1 5.34857 5.34857 0 0 0 0 1 3
57 1 4.45714 4.45714 0.891429 0 0 0 1 2
58 1 4.45812 6.23164 2.69363 0.3858 6.32123 0.969313 1 1
59 1 6.23086 4.44139 2.69613 0.921957 4.78074 -7.10199 1 1
60 1 6.24 6.24 0.891429 0 0 0 1 2
61 1 5.34502 7.09345 1.76822 1.05428 -0.327188 7.3884 1 1
62 1 7.13476 5.36277 1.73941 -0.693731 3.99658 -2.18019 1 1
63 1 7.13143 3.56572 0 0 0 0 1 3
64 1 8.9095 3.58604 1.7829 6.68196 7.66338 5.09245 1 1
65 1 8.02286 4.45714 0.891429 0 0 0 1 2
66 1 8.03306 6.21724 2.65769 0.264738 -6.42622 -0.328497 1 1
67 1 8.91429 5.34857 0 0 0 0 1 3
68 1 9.7682 4.45788 2.66291 -4.35277 2.33318 7.73427 1 1
69 1 9.80572 6.24 0.891429 0 0 0 1 2
70 1 10.6671 5.3558 1.75496 6.25082 -6.55215 10.0003 1 1
71 1 12.4913 3.5461 1.70002 3.20733 -1.14541 -1.00528 1 1
72 1 10.6971 3.56572 0 0 0 0 1 3
73 1 12.48 5.34857 0 0 0 0 1 3
74 1 11.5886 4.45714 0.891429 0 0 0 1 2
75 1 11.6227 6.2141 2.66999 -2.74256 4.41192 -6.41463 1 1
76 1 13.3651 4.44379 2.63423 -3.29056 2.08155 5.13409 1 1
77 1 13.3714 6.24 0.891429 0 0 0 1 2
78 1 14.2495 5.28443 1.78476 0.256074 -1.94355 0.174344 1 1
79 1 16.0179 3.55692 1.77217 -1.83764 -4.91939 -7.80804 1 1
80 1 14.2629 3.56572 0 0 0 0 1 3
81 1 16.0457 5.34857 0 0 0 0 1 3
82 1 15.1543 4.45714 0.891429 0 0 0 1 2
83 1 15.1628 6.17834 2.69861 1.116 -2.01217 1.26656 1 1
84 1 16.8809 4.45653 2.69243 -5.21421 3.03806 -3.02454 1 1
85 1 16.9371 6.24 0.891429 0 0 0 1 2
86 1 17.8027 5.33129 1.78648 -1.26242 -1.8301 6.81947 1 1
87 1 19.5809 3.54782 1.77677 -11.3921 -3.09849 -6.65095 1 1
88 1 0.00813134 5.32237 1.7457 2.78641 1.77263 0.850261 1 1
89 1 17.8286 3.56572 0 0 0 0 1 3
90 1 19.6114 5.34857 0 0 0 0 1 3
91 1 18.72 4.45714 0.891429 0 0 0 1 2
92 1 18.7276 6.1987 2.64295 -1.56644 9.13104 1.0385 1 1
93 1 20.5322 4.42342 2.62879 0.672287 -5.5345 6.36739 1 1
94 1 20.5029 6.24 0.891429 0 0 0 1 2
95 1 19.5936 7.13774 1.76653 1.82008 -2.39584 -2.65094 1 1
96 1 1.7926 7.15678 1.75462 0.642135 -5.99571 4.5432 1 1
97 1 0 7.13143 0 0 0 0 1 3
98 1 0.891429 8.02286 0.891429 0 0 0 1 2
99 1 2.67451 8.03784 2.70492 1.11639 -1.51569 2.98227 1 1
100 1 1.78286 8.91429 0 0 0 0 1 3
101 1 0.893212 9.78888 2.64802 -6.19993 -4.3258 -4.46999 1 1
102 1 2.67429 9.80572 0.891429 0 0 0 1 2
103 1 1.76066 10.6705 1.76869 -3.7641 -1.36868 10.3143 1 1
104 1 3.60339 8.92483 1.78734 2.52534 -2.54117 2.9446 1 1
105 1 3.56572 7.13143 0 0 0 0 1 3
106 1 4.45714 8.02286 0.891429 0 0 0 1 2
107 1 6.24156 8.0049 2.67372 -2.63445 3.20211 -0.672276 1 1
108 1 5.34857 8.91429 0 0 0 0 1 3
109 1 4.46295 9.79272 2.6671 -1.99 -2.68583 0.237408 1 1
110 1 6.24 9.80572 0.891429 0 0 0 1 2
111 1 7.13339 8.87671 1.77359 -2.20814 1.11376 9.8619 1 1
112 1 8.91179 7.08494 1.75295 2.32135 -1.37254 -5.05197 1 1
113 1 7.13143 7.13143 0 0 0 0 1 3
114 1 8.02286 8.02286 0.891429 0 0 0 1 2
115 1 9.82318 7.96951 2.68905 0.113089 -4.72039 -9.80246 1 1
116 1 8.02352 9.78713 2.68158 -0.910184 -2.27696 0.747639 1 1
117 1 8.91429 8.91429 0 0 0 0 1 3
118 1 9.80572 9.80572 0.891429 0 0 0 1 2
119 1 10.6827 8.91024 1.78829 -2.33784 2.94174 -2.46924 1 1
120 1 12.4474 7.13075 1.783 -0.53854 -6.56896 3.76063 1 1
121 1 10.6971 7.13143 0 0 0 0 1 3
122 1 11.5886 8.02286 0.891429 0 0 0 1 2
123 1 13.3522 7.98125 2.66033 -10.2661 -1.35448 8.06283 1 1
124 1 12.48 8.91429 0 0 0 0 1 3
125 1 11.5715 9.82219 2.68495 -1.1598 -4.1761 -6.31111 1 1
126 1 13.3714 9.80572 0.891429 0 0 0 1 2
127 1 12.4719 10.671 1.81172 -5.09153 4.98773 2.61875 1 1
128 1 16.004 7.12549 1.7616 -6.406 -1.89807 -0.705841 1 1
129 1 14.2725 8.91067 1.798 7.0949 4.45571 -0.552234 1 1
130 1 14.2629 7.13143 0 0 0 0 1 3
131 1 15.1543 8.02286 0.891429 0 0 0 1 2
132 1 16.934 7.96547 2.66499 5.77263 -0.181777 -1.60491 1 1
133 1 16.0457 8.91429 0 0 0 0 1 3
134 1 15.1715 9.81736 2.65342 2.22356 1.79349 7.73601 1 1
135 1 16.9371 9.80572 0.891429 0 0 0 1 2
136 1 16.0368 10.6817 1.80562 -10.0428 7.17941 2.83074 1 1
137 1 17.7993 8.91942 1.76996 0.785472 11.5781 -1.80833 1 1
138 1 0.00969413 8.92448 1.76435 2.04346 -3.06592 1.2449 1 1
139 1 17.8286 7.13143 0 0 0 0 1 3
140 1 18.72 8.02286 0.891429 0 0 0 1 2
141 1 20.4602 8.0396 2.63651 -3.57948 7.39436 -2.03682 1 1
142 1 19.6114 8.91429 0 0 0 0 1 3
143 1 18.6998 9.80125 2.69282 -0.350282 -0.65935 4.83471 1 1
144 1 20.5029 9.80572 0.891429 0 0 0 1 2
145 1 0 10.6971 0 0 0 0 1 3
146 1 1.78286 12.48 0 0 0 0 1 3
147 1 0.891429 11.5886 0.891429 0 0 0 1 2
148 1 2.63801 11.5262 2.65404 -4.42851 1.30994 3.82103 1 1
149 1 0.876617 13.3245 2.68543 1.11026 0.821723 3.82665 1 1
150 1 2.67429 13.3714 0.891429 0 0 0 1 2
151 1 0.00646069 12.5165 1.73578 -8.9053 9.35911 5.93537 1 1
152 1 5.36525 10.6972 1.80824 -0.51279 -9.3802 6.21165 1 1
153 1 3.5836 12.4825 1.77592 -4.90765 4.01391 -2.24761 1 1
154 1 3.56572 10.6971 0 0 0 0 1 3
155 1 5.34857 12.48 0 0 0 0 1 3
156 1 4.45714 11.5886 0.891429 0 0 0 1 2
157 1 6.23238 11.5786 2.69282 1.8231 4.5426 -5.25422 1 1
158 1 4.45022 13.3611 2.68827 -0.502318 1.915 7.65712 1 1
159 1 6.24 13.3714 0.891429 0 0 0 1 2
160 1 5.30266 14.2669 1.80674 -2.87278 -12.1362 -4.4423 1 1
161 1 8.92058 10.7064 1.81445 3.86799 -6.14805 1.67889 1 1
162 1 7.1258 12.479 1.77803 -1.14316 0.343809 1.20314 1 1
163 1 7.13143 10.6971 0 0 0 0 1 3
164 1 8.02286 11.5886 0.891429 0 0 0 1 2
165 1 8.91429 12.48 0 0 0 0 1 3
166 1 9.79661 11.6205 2.66862 7.7802 -5.50255 5.29014 1 1
167 1 7.999 13.382 2.60706 -4.87139 0.778461 3.59313 1 1
168 1 9.80572 13.3714 0.891429 0 0 0 1 2
169 1 10.6522 12.4739 1.73476 -3.67093 6.98913 -5.09024 1 1
170 1 10.6971 10.6971 0 0 0 0 1 3
171 1 12.48 12.48 0 0 0 0 1 3
172 1 11.5886 11.5886 0.891429 0 0 0 1 2
173 1 13.3588 11.6247 2.64818 -1.85403 2.17973 4.11539 1 1
174 1 11.5907 13.3729 2.59942 -1.77003 2.06506 5.38237 1 1
175 1 13.3714 13.3714 0.891429 0 0 0 1 2
176 1 12.5031 14.2803 1.75542 -2.57697 0.278763 -2.70637 1 1
177 1 14.2395 12.4639 1.79795 -1.82377 -7.80559 -2.97705 1 1
178 1 14.2629 10.6971 0 0 0 0 1 3
179 1 16.0457 12.48 0 0 0 0 1 3
180 1 15.1543 11.5886 0.891429 0 0 0 1 2
181 1 16.9588 11.5559 2.71088 -2.70589 1.76885 2.47573 1 1
182 1 15.1364 13.3455 2.71427 -5.71124 -4.42097 0.863584 1 1
183 1 16.9371 13.3714 0.891429 0 0 0 1 2
184 1 17.8059 12.4665 1.74806 -2.13467 2.69443 -6.92571 1 1
185 1 19.6014 10.7021 1.78715 7.44307 0.173031 -0.0826034 1 1
186 1 17.8286 10.6971 0 0 0 0 1 3
187 1 19.6114 12.48 0 0 0 0 1 3
188 1 18.72 11.5886 0.891429 0 0 0 1 2
189 1 20.5131 11.5908 2.65981 1.40874 0.191476 -1.72361 1 1
190 1 18.7577 13.3987 2.65204 0.398202 -2.75546 6.16672 1 1
191 1 20.5029 13.3714 0.891429 0 0 0 1 2
192 1 19.6544 14.2288 1.7911 -1.23554 2.55344 4.67916 1 1
193 1 1.78614 14.2584 1.76714 3.0023 2.62353 0.661486 1 1
194 1 0 14.2629 0 0 0 0 1 3
195 1 1.78286 16.0457 0 0 0 0 1 3
196 1 0.891429 15.1543 0.891429 0 0 0 1 2
197 1 0.879098 16.9321 2.66965 4.73426 -0.590065 -9.52231 1 1
198 1 2.67562 15.178 2.6721 -3.88827 1.72717 1.80055 1 1
199 1 2.67429 16.9371 0.891429 0 0 0 1 2
200 1 21.4141 16.0294 1.79394 7.87474 5.13113 -0.765253 1 1
201 1 3.56511 16.0654 1.73669 2.40588 -3.68746 -7.60888 1 1
202 1 3.56572 14.2629 0 0 0 0 1 3
203 1 5.34857 16.0457 0 0 0 0 1 3
204 1 4.45714 15.1543 0.891429 0 0 0 1 2
205 1 4.43542 16.914 2.63205 0.672811 -2.41791 -5.5059 1 1
206 1 6.22288 15.1494 2.65977 -12.3759 -11.3754 4.43361 1 1
207 1 6.24 16.9371 0.891429 0 0 0 1 2
208 1 7.07275 16.0013 1.73959 -6.64546 -7.48307 3.71424 1 1
209 1 5.35604 17.7934 1.77385 -0.493121 3.61677 -4.12548 1 1
210 1 8.89868 14.2992 1.74509 -0.94005 2.95091 6.80976 1 1
211 1 7.13143 14.2629 0 0 0 0 1 3
212 1 8.02286 15.1543 0.891429 0 0 0 1 2
213 1 7.98787 16.929 2.64992 0.127779 -0.187721 -4.71997 1 1
214 1 8.91429 16.0457 0 0 0 0 1 3
215 1 9.78516 15.1611 2.64844 -5.35563 3.41167 8.5953 1 1
216 1 9.80572 16.9371 0.891429 0 0 0 1 2
217 1 8.89441 17.8287 1.76511 -7.1661 -2.08994 4.99478 1 1
218 1 10.7404 16.0308 1.7871 0.724508 2.14807 -0.745118 1 1
219 1 10.6971 14.2629 0 0 0 0 1 3
220 1 12.48 16.0457 0 0 0 0 1 3
221 1 11.5886 15.1543 0.891429 0 0 0 1 2
222 1 11.6038 16.9252 2.67257 -1.96917 4.51458 -3.26066 1 1
223 1 13.3557 15.1663 2.60764 5.86987 -9.12464 0.247961 1 1
224 1 13.3714 16.9371 0.891429 0 0 0 1 2
225 1 12.4685 17.8175 1.77961 0.0299102 -3.39257 -1.17622 1 1
226 1 16.0214 14.2589 1.75816 -8.57903 -1.038 -0.450371 1 1
227 1 14.2304 16.0509 1.77045 -3.76454 2.12609 -0.394832 1 1
228 1 14.2629 14.2629 0 0 0 0 1 3
229 1 16.0457 16.0457 0 0 0 0 1 3
230 1 15.1543 15.1543 0.891429 0 0 0 1 2
231 1 15.1501 16.9197 2.64336 3.25887 -1.87979 1.23233 1 1
232 1 16.9368 15.0939 2.67243 -0.728077 8.87571 6.94233 1 1
233 1 16.9371 16.9371 0.891429 0 0 0 1 2
234 1 17.8411 16.05 1.74273 -2.25126 -0.869327 -1.73657 1 1
235 1 17.8286 14.2629 0 0 0 0 1 3
236 1 19.6114 16.0457 0 0 0 0 1 3
237 1 18.72 15.1543 0.891429 0 0 0 1 2
238 1 18.7268 16.9324 2.6459 1.59113 8.91541 3.34471 1 1
239 1 20.5231 15.1311 2.69489 7.06235 -9.4304 -8.58105 1 1
240 1 20.5029 16.9371 0.891429 0 0 0 1 2
241 1 19.6084 17.782 1.76673 -2.92512 0.538639 4.45319 1 1
242 1 1.76956 17.8515 1.74243 2.8671 5.05366 -2.79433 1 1
243 1 0 17.8286 0 0 0 0 1 3
244 1 1.78286 19.6114 0 0 0 0 1 3
245 1 0.891429 18.72 0.891429 0 0 0 1 2
246 1 0.89174 20.5094 2.67298 -11.047 6.74074 4.96341 1 1
247 1 2.61646 18.7184 2.65716 4.3049 6.56224 -0.576642 1 1
248 1 2.67429 20.5029 0.891429 0 0 0 1 2
249 1 3.55103 19.6155 1.82187 -3.1405 -5.1585 -2.21933 1 1
250 1 0.00628089 19.6318 1.75402 -5.56737 -6.7494 2.79033 1 1
251 1 5.33624 21.3552 1.7843 -9.4181 -1.70123 4.7508 1 1
252 1 3.56572 17.8286 0 0 0 0 1 3
253 1 5.34857 19.6114 0 0 0 0 1 3
254 1 4.45714 18.72 0.891429 0 0 0 1 2
255 1 4.51514 20.5088 2.67277 1.78665 1.13336 0.701155 1 1
256 1 6.24476 18.6798 2.69123 3.7319 2.27763 6.89855 1 1
257 1 6.24 20.5029 0.891429 0 0 0 1 2
258 1 7.08622 19.5899 1.79207 -3.99267 0.0877331 3.00748 1 1
259 1 7.13143 17.8286 0 0 0 0 1 3
260 1 8.02286 18.72 0.891429 0 0 0 1 2
261 1 7.99907 20.5224 2.64956 3.86318 1.98724 -2.99781 1 1
262 1 8.91429 19.6114 0 0 0 0 1 3
263 1 9.76366 18.6761 2.63228 -0.462945 0.958609 1.97446 1 1
264 1 9.80572 20.5029 0.891429 0 0 0 1 2
265 1 10.6326 19.5836 1.79189 -5.31807 5.69081 5.55734 1 1
266 1 12.4819 21.3948 1.80827 5.49792 -0.324108 5.52082 1 1
267 1 10.6971 17.8286 0 0 0 0 1 3
268 1 12.48 19.6114 0 0 0 0 1 3
269 1 11.5886 18.72 0.891429 0 0 0 1 2
270 1 11.5779 20.4529 2.67465 -3.9312 3.56958 4.97391 1 1
271 1 13.377 18.7079 2.64647 -0.797393 -1.23411 -6.16724 1 1
272 1 13.3714 20.5029 0.891429 0 0 0 1 2
273 1 14.2891 19.5957 1.76503 6.58149 -5.75875 8.90315 1 1
274 1 16.0372 17.8547 1.80068 -8.4682 0.815393 -7.13325 1 1
275 1 14.2629 17.8286 0 0 0 0 1 3
276 1 16.0457 19.6114 0 0 0 0 1 3
277 1 15.1543 18.72 0.891429 0 0 0 1 2
278 1 15.1815 20.5256 2.68489 -2.30258 1.7099 11.3995 1 1
279 1 16.9525 18.739 2.71174 -0.610665 -0.254699 1.42505 1 1
280 1 16.9371 20.5029 0.891429 0 0 0 1 2
281 1 19.573 0.0536478 1.79615 1.25425 5.94578 -1.50768 1 1
282 1 17.8126 19.6134 1.78455 2.33695 -1.58135 -4.13685 1 1
283 1 17.8286 17.8286 0 0 0 0 1 3
284 1 19.6114 19.6114 0 0 0 0 1 3
285 1 18.72 18.72 0.891429 0 0 0 1 2
286 1 18.7119 20.546 2.66525 -7.11424 6.18323 6.96353 1 1
287 1 20.4411 18.742 2.63535 -2.79232 4.86209 0.280228 1 1
288 1 20.5029 20.5029 0.891429 0 0 0 1 2
289 1 1.78341 1.78761 3.54138 5.70566 -18.7127 0.895595 1 1
290 1 0.88781 0.888289 4.41954 -2.29074 -2.97382 2.54752 1 1
291 1 2.66022 2.70535 4.46138 5.08356 4.89958 1.08957 1 1
292 1 1.8077 21.3922 5.3243 -5.61072 0.396947 -2.19316 1 1
293 1 1.74707 3.56666 5.3208 0.754742 1.93454 1.47614 1 1
294 1 21.3755 1.73189 5.34044 -4.44808 -2.87917 -0.784321 1 1
295 1 21.3883 21.38 3.55484 5.72749 6.30504 -1.58127 1 1
296 1 3.57019 1.80917 5.33451 -3.47758 -1.76675 -0.958921 1 1
297 1 5.31328 1.74928 3.55879 -3.57388 6.64591 -4.72984 1 1
298 1 4.4292 0.897301 4.42698 -2.06798 -9.97435 -11.3547 1 1
299 1 6.19868 0.865475 6.20122 -1.38684 -2.20557 2.07561 1 1
300 1 6.23941 2.65271 4.41184 2.6014 0.879745 -2.86664 1 1
301 1 3.5527 21.3943 3.59569 -1.39365 2.6961 1.43228 1 1
302 1 7.10424 21.3598 3.5489 -3.64126 -1.75885 7.20215 1 1
303 1 5.33653 21.3696 5.33115 4.825 -3.45691 1.63145 1 1
304 1 7.12301 3.55352 3.55146 -5.55373 7.72517 -2.60764 1 1
305 1 7.11705 1.76195 5.30421 -3.29331 0.397021 -1.40537 1 1
306 1 8.92703 1.77613 3.54531 -3.26105 -7.77645 -0.775921 1 1
307 1 8.00072 0.883635 4.42611 -3.17953 -3.60328 7.22079 1 1
308 1 8.01183 2.61357 6.2347 -4.49244 -6.12677 0.626467 1 1
309 1 9.81599 0.909729 6.18701 9.39327 -3.72566 7.73709 1 1
310 1 9.82288 2.63888 4.43463 -1.70897 -1.30708 -1.30018 1 1
311 1 10.6831 1.75339 5.29655 1.20039 6.85345 0.348725 1 1
312 1 12.4683 1.76252 3.54909 -0.927222 -3.75354 -4.07316 1 1
313 1 11.5798 0.891212 4.44277 -0.867132 -1.57014 3.78333 1 1
314 1 11.5497 2.65115 6.21665 -1.78362 -1.81447 -0.669128 1 1
315 1 13.3133 2.63667 4.45712 2.56626 7.01376 -3.63547 1 1
316 1 13.3351 0.878523 6.17952 -3.78587 2.84613 -3.88969 1 1
317 1 12.434 3.53581 5.3178 -0.60525 0.997318 -4.07886 1 1
318 1 14.1739 1.77818 5.32137 2.36733 -9.78593 10.7513 1 1
319 1 12.4267 21.3962 5.3253 1.8976 0.539063 -1.24465 1 1
320 1 14.1909 3.51314 3.55042 3.06633 4.85006 -6.02409 1 1
321 1 15.9596 1.75555 3.55215 14.601 -2.12577 -0.91392 1 1
322 1 15.1302 0.902454 4.48896 -0.345508 -2.25118 1.63931 1 1
323 1 15.1388 2.66933 6.23832 2.03347 -2.41953 4.42665 1 1
324 1 16.9287 2.64235 4.454 6.36518 3.66292 6.25462 1 1
325 1 17.7901 1.77972 5.33514 -0.246546 -2.83734 -0.200813 1 1
326 1 16.0602 21.3535 5.34573 2.48827 -7.48611 0.704143 1 1
327 1 19.5871 1.78519 3.55361 -5.66604 -1.03361 1.253 1 1
328 1 18.6859 0.906989 4.40023 -6.12244 1.90893 -4.82732 1 1
329 1 20.4932 2.67889 4.44251 -0.504086 -3.07135 5.67198 1 1
330 1 17.8309 21.3617 3.56361 3.11548 -1.52168 -3.15356 1 1
331 1 19.5924 21.3537 5.34212 -1.00318 -8.37633 -2.99222 1 1
332 1 21.3622 3.54108 3.55069 0.752929 -1.44842 -4.99629 1 1
333 1 1.80028 5.33353 3.55219 -4.53259 0.0570271 3.05269 1 1
334 1 0.844469 4.46156 4.42163 -0.105757 -11.8578 8.72751 1 1
335 1 2.64354 4.44681 6.19608 2.83563 0.595009 3.5239 1 1
336 1 2.63835 6.16642 4.47045 0.729918 4.3858 -4.47245 1 1
337 1 3.50864 3.60779 3.54895 0.706938 -2.1731 7.60745 1 1
338 1 21.3591 5.30852 5.3167 -1.23802 2.32876 4.89994 1 1
339 1 3.50962 5.32989 5.36116 9.48428 8.14173 0.106885 1 1
340 1 5.34377 3.55003 5.32741 7.70122 -1.6283 -4.12456 1 1
341 1 5.33269 5.36097 3.58475 6.69781 -1.46231 -6.41844 1 1
342 1 4.44922 4.45536 4.45399 -7.86909 2.2785 4.8944 1 1
343 1 4.44044 6.26107 6.23487 0.276117 0.56726 7.24628 1 1
344 1 6.24013 6.23973 4.45948 -0.616473 -3.09241 0.35163 1 1
345 1 7.10776 5.29265 5.36017 -3.65691 -1.5864 -9.90422 1 1
346 1 5.32977 7.12527 5.36633 -1.44174 4.61568 5.59215 1 1
347 1 6.19132 4.40234 6.22248 -1.52679 3.52188 -4.14043 1 1
348 1 8.93302 3.53928 5.34388 -6.24293 2.20032 -1.30868 1 1
349 1 10.6574 3.54983 3.52248 0.824455 -2.2485 2.85028 1 1
350 1 8.89089 5.34558 3.53794 0.605129 0.980899 -2.07168 1 1
351 1 8.03931 4.43955 4.46317 3.72858 9.57592 -3.92615 1 1
352 1 8.03574 6.19995 6.25462 1.20554 -1.16375 -1.63972 1 1
353 1 9.84688 4.42938 6.252 1.40269 3.30888 2.62986 1 1
354 1 9.79315 6.20961 4.43954 -1.06981 -2.17627 6.09928 1 1
355 1 10.6704 5.30495 5.33696 -1.94703 2.66403 1.13061 1 1
356 1 12.5109 5.30287 3.55845 -2.23794 4.1772 -0.579073 1 1
357 1 11.6043 4.44826 4.45114 -2.98683 -4.07498 2.86738 1 1
358 1 13.3426 6.23424 4.43265 5.22619 7.67183 0.594705 1 1
359 1 14.2252 5.35367 5.33098 -3.89028 -6.43188 1.24164 1 1
360 1 16.0191 3.53043 5.37887 -5.20986 2.51583 -2.28855 1 1
361 1 17.794 3.50517 3.58262 -8.11503 -7.03802 4.49804 1 1
362 1 16.0102 5.31736 3.58608 -0.389016 0.060511 -0.399773 1 1
363 1 15.1518 4.39613 4.46839 5.9682 -7.35379 6.76938 1 1
364 1 16.9446 6.20716 4.40086 5.09674 -2.69618 1.16073 1 1
365 1 16.923 4.42722 6.20543 -2.05194 3.54938 2.87279 1 1
366 1 16.0228 7.17332 5.29011 -2.87701 1.62906 5.61293 1 1
367 1 15.1114 6.25623 6.20169 -2.39382 -1.47067 5.24228 1 1
368 1 19.5903 3.56309 5.32315 1.09705 2.6041 -6.26489 1 1
369 1 17.7814 5.32361 5.30764 -0.464687 4.86687 2.29763 1 1
370 1 19.6073 5.32976 3.51816 5.77146 -1.69193 -5.91755 1 1
371 1 18.6585 4.39063 4.45937 4.34317 -3.59975 11.0195 1 1
372 1 20.4378 4.48192 6.18938 -3.19814 3.04142 0.605343 1 1
373 1 20.5106 6.24409 4.43152 -3.94879 -11.3268 -5.32176 1 1
374 1 19.5708 7.09252 5.27098 -3.11664 1.10167 4.55082 1 1
375 1 21.377 7.16012 3.48234 2.80522 -2.61401 -0.245092 1 1
376 1 1.76014 7.12762 5.35481 1.57906 0.242582 7.83177 1 1
377 1 1.74056 8.93324 3.57035 -1.63873 -3.92255 6.77419 1 1
378 1 0.861767 8.00975 4.44487 2.25878 -0.974531 -1.26207 1 1
379 1 2.64308 8.03077 6.23137 -2.49443 -2.67207 -0.473526 1 1
380 1 0.867201 9.8001 6.25309 -6.42115 1.72606 -3.22637 1 1
381 1 2.72827 9.78508 4.39139 -3.71601 -7.10454 -2.4425 1 1
382 1 21.3801 8.92517 5.32598 -1.80412 -3.3937 -1.04045 1 1
383 1 1.74438 10.6362 5.30473 -5.93258 -7.24737 8.36648 1 1
384 1 3.55128 7.09914 3.56898 0.263475 1.28136 -0.555697 1 1
385 1 7.06815 7.11547 3.58363 2.52386 -15.457 1.10649 1 1
386 1 3.55385 10.6591 3.54966 -0.678691 1.41782 1.8304 1 1
387 1 3.56997 8.90739 5.35038 -5.99111 -0.65888 8.98783 1 1
388 1 5.32565 8.87376 3.59915 -1.87742 9.90602 5.01887 1 1
389 1 4.4774 8.05196 4.48033 7.04545 3.91257 7.9473 1 1
390 1 4.42946 9.8075 6.2304 -3.32499 1.64755 -3.05497 1 1
391 1 6.24439 9.76317 4.48788 3.12566 -4.99088 2.77375 1 1
392 1 8.89873 7.08953 5.34494 2.53966 -4.50149 1.06609 1 1
393 1 7.19114 8.8924 5.38891 9.68292 1.87127 6.87035 1 1
394 1 8.90335 8.8633 3.5505 -0.191373 -9.22217 -5.4588 1 1
395 1 8.02602 8.00922 4.46135 5.22419 -3.98633 7.39914 1 1
396 1 9.81627 9.78695 4.41394 -2.80155 -1.08597 -0.0348613 1 1
397 1 10.6937 8.88301 5.31069 6.86984 1.03839 -2.27736 1 1
398 1 10.6904 10.709 3.50988 -2.33777 4.00228 -3.97645 1 1
399 1 9.77667 7.95721 6.22954 1.78449 3.5032 -4.51983 1 1
400 1 12.4743 7.14028 5.32304 4.01128 -3.78079 -2.58982 1 1
401 1 10.7022 7.1082 3.54587 -3.98331 2.96567 -1.4139 1 1
402 1 12.4797 8.86683 3.58181 -4.39749 4.04085 8.5343 1 1
403 1 11.5643 7.9864 4.45564 -3.89555 -5.26161 4.54561 1 1
404 1 13.3506 9.82307 4.43991 6.2838 3.00959 -5.65949 1 1
405 1 14.2312 7.14223 3.5414 1.44576 -0.0433906 -1.74245 1 1
406 1 14.2744 8.93634 5.25439 5.76934 -2.50482 1.06879 1 1
407 1 17.8033 7.13878 3.54581 4.12352 -1.93987 5.33387 1 1
408 1 16.0154 8.94795 3.5462 -0.154724 -4.94376 6.76482 1 1
409 1 15.1449 8.06212 4.43048 2.81592 5.75203 6.31956 1 1
410 1 16.9501 9.80141 4.43887 -1.77309 4.56907 2.46063 1 1
411 1 16.0457 10.693 5.32086 0.934763 5.82797 -2.4381 1 1
412 1 16.9332 8.09827 6.19288 0.295415 5.03516 2.15736 1 1
413 1 17.8278 8.89143 5.31821 5.13712 -1.60088 -3.09749 1 1
414 1 19.6247 8.93491 3.51643 -3.14355 2.41392 -5.33426 1 1
415 1 18.7155 8.03185 4.39784 2.31605 0.547728 -6.22631 1 1
416 1 18.7578 9.78783 6.23251 -4.2517 5.32441 -4.66661 1 1
417 1 20.4973 9.80938 4.41119 -4.5323 -15.3446 4.99509 1 1
418 1 20.4894 8.01244 6.22439 1.08969 0.943322 2.14646 1 1
419 1 19.6127 10.7052 5.32179 0.625015 3.35429 -0.972583 1 1
420 1 0.0393696 10.7424 3.52798 -8.2628 -8.98789 3.05703 1 1
421 1 1.80797 12.4099 3.52064 0.0787895 5.89317 3.05663 1 1
422 1 0.892877 11.551 4.41546 -3.77116 -1.42018 4.10274 1 1
423 1 2.67351 11.5801 6.23949 -3.06224 0.74961 1.05691 1 1
424 1 0.876029 13.3948 6.23298 1.33034 -0.612043 6.17522 1 1
425 1 2.65587 13.3737 4.43179 2.23339 -2.98473 5.10064 1 1
426 1 0.0676384 12.4737 5.32735 5.35296 0.445969 -1.46141 1 1
427 1 5.29741 10.7011 5.35996 -5.39203 3.9519 3.08471 1 1
428 1 3.56906 14.2686 3.61828 -5.1135 -7.94076 0.890812 1 1
429 1 3.55417 12.4977 5.32769 6.72621 -5.46404 -5.67689 1 1
430 1 5.33535 12.4689 3.56011 -5.34426 2.11782 6.28758 1 1
431 1 4.44306 11.5577 4.43182 -0.283825 4.91453 -5.90384 1 1
432 1 6.25526 13.3676 4.40134 -1.47893 6.70601 -0.0363957 1 1
433 1 7.14309 14.2304 3.53202 0.784697 -0.783281 15.2804 1 1
434 1 6.20504 11.5778 6.22551 1.78248 3.02957 2.56666 1 1
435 1 7.13244 10.6333 3.55969 -3.48074 -11.5906 -1.37857 1 1
436 1 7.11314 12.4467 5.37181 -2.58119 1.59261 -0.368013 1 1
437 1 8.93422 10.7228 5.32373 -8.42135 1.43831 -1.61087 1 1
438 1 8.871 12.5165 3.52772 -1.00833 3.73407 -5.6623 1 1
439 1 8.05486 11.6099 4.45048 4.37888 2.05932 4.48005 1 1
440 1 9.83051 11.6249 6.24594 -2.0087 5.40418 -6.98414 1 1
441 1 8.01632 13.3429 6.20732 9.67761 -3.10295 1.61402 1 1
442 1 9.75662 13.3822 4.42504 -2.69473 -4.46726 -4.24445 1 1
443 1 10.6872 14.2779 3.50113 0.47117 -6.63508 1.74908 1 1
444 1 12.4905 10.7194 5.30974 2.13406 -1.28866 0.462005 1 1
445 1 10.7082 12.5474 5.36921 -1.61266 -9.49639 8.84602 1 1
446 1 12.4912 12.5545 3.49733 -1.02065 1.54843 -4.17666 1 1
447 1 11.5917 11.6275 4.45087 7.66704 1.85751 4.38408 1 1
448 1 13.3388 11.6113 6.22645 -0.445138 9.18667 1.88101 1 1
449 1 11.5482 13.4014 6.21704 1.65123 -9.9651 1.65208 1 1
450 1 13.324 13.4055 4.44517 1.093 1.61958 4.89704 1 1
451 1 14.2134 10.718 3.49728 -3.29381 8.36603 -3.62572 1 1
452 1 14.2024 12.5095 5.28749 3.30612 2.7559 3.29415 1 1
453 1 16.0561 12.4301 3.55725 -1.95165 1.7548 -2.83958 1 1
454 1 15.1061 11.5977 4.40787 -6.27623 1.70823 -0.601736 1 1
455 1 16.9101 11.5815 6.223 -1.84608 -4.94768 3.14486 1 1
456 1 16.9667 13.3317 4.4689 -3.80963 -3.23609 3.51267 1 1
457 1 17.8216 12.4638 5.35152 -7.5366 -0.804878 6.02262 1 1
458 1 15.0903 13.3646 6.2118 -1.50326 -6.22346 -4.76113 1 1
459 1 17.8706 10.6782 3.54454 -4.09033 7.39238 2.39367 1 1
460 1 19.6284 12.4879 3.54577 -0.854744 -8.2467 -5.14479 1 1
461 1 18.7012 11.5736 4.43898 4.44575 -2.56012 4.33927 1 1
462 1 18.7288 13.3612 6.20961 -4.02084 -7.68404 -2.31971 1 1
463 1 20.5134 13.3745 4.45811 5.0906 -4.73943 -2.28815 1 1
464 1 20.5553 11.5802 6.23379 0.460731 4.23015 4.89051 1 1
465 1 1.81534 14.25 5.35865 3.93111 -8.53876 0.856742 1 1
466 1 1.78262 16.0205 3.55544 1.10465 -4.76519 5.77656 1 1
467 1 0.921749 15.1307 4.42761 -5.80643 4.62173 3.48376 1 1
468 1 2.61663 15.2059 6.2683 -6.56285 0.159204 -4.19621 1 1
469 1 2.66022 16.9161 4.43425 0.388365 2.11951 6.37726 1 1
470 1 0.0365034 16.0627 5.38125 -4.58115 3.51166 5.9172 1 1
471 1 0.0148949 14.2363 3.57848 0.34203 8.46601 0.37954 1 1
472 1 1.77282 17.825 5.30237 6.67929 12.3757 1.15466 1 1
473 1 5.35344 14.2543 5.31554 -4.58664 -0.299642 1.09016 1 1
474 1 3.54271 16.0633 5.33361 -6.34747 1.18824 7.26466 1 1
475 1 5.36423 16.0105 3.58468 0.601537 -0.716799 -11.0461 1 1
476 1 4.43545 15.1614 4.47942 -4.06133 2.02788 6.55803 1 1
477 1 4.47119 16.9089 6.27781 -4.29096 -5.36068 -1.62769 1 1
478 1 6.26591 15.1164 6.21589 -2.45732 -2.65517 -1.80375 1 1
479 1 6.25156 16.8735 4.46631 -5.72863 0.712413 -0.0203899 1 1
480 1 7.17586 16.0048 5.32452 7.04733 2.21642 -0.712564 1 1
481 1 8.8812 14.2554 5.35118 6.61817 3.69043 -1.20593 1 1
482 1 8.90784 16.0467 3.52291 -2.70042 -5.00546 1.05917 1 1
483 1 7.98903 15.1118 4.42729 9.51622 -1.09316 -0.240618 1 1
484 1 8.00927 16.9051 6.21698 -2.01896 -1.23899 1.41877 1 1
485 1 9.76547 15.1353 6.28182 -1.2645 5.11302 3.01116 1 1
486 1 9.77655 16.9219 4.45048 -2.5508 5.16398 -5.27768 1 1
487 1 10.6767 16.0009 5.35249 9.44504 -4.2062 -5.1818 1 1
488 1 8.90686 17.8004 5.37371 -7.30948 7.10307 -1.40418 1 1
489 1 10.6742 17.779 3.54552 -0.0598289 -4.15584 2.98884 1 1
490 1 12.492 14.2752 5.33148 0.641073 -2.65216 -0.178799 1 1
491 1 12.5035 16.0686 3.54305 1.79177 -1.61751 -2.24252 1 1
492 1 11.6227 15.1664 4.39865 3.58646 -4.53863 -2.76447 1 1
493 1 11.572 16.9225 6.1724 -1.4802 0.286018 2.96568 1 1
494 1 13.3635 16.9266 4.44157 2.39847 -4.07625 1.59965 1 1
495 1 13.3471 15.1892 6.24808 10.4415 5.35266 4.53024 1 1
496 1 12.4638 17.8305 5.33473 -0.0945517 4.9017 -0.202124 1 1
497 1 14.2469 14.2788 3.57565 -3.70012 1.42317 0.605086 1 1
498 1 16.0547 14.2268 5.33054 -0.787362 -0.26438 1.23711 1 1
499 1 17.8138 14.2203 3.55483 6.91807 6.4801 -0.204017 1 1
500 1 14.2569 16.0209 5.3122 -3.53063 2.17047 -2.21363 1 1
501 1 14.2294 17.771 3.54334 -0.859629 2.88172 -4.62631 1 1
502 1 16.1052 15.9998 3.56728 -5.43179 3.72335 -4.41524 1 1
503 1 15.1691 15.0954 4.44233 -1.59149 -2.24145 4.34123 1 1
504 1 16.9504 16.9132 4.46456 11.2255 -10.7172 -7.05202 1 1
505 1 16.9201 15.1612 6.2465 0.085051 -1.52331 7.66244 1 1
506 1 17.7991 16.0343 5.36635 0.921999 1.43605 4.66305 1 1
507 1 19.6396 14.2615 5.34466 2.93811 -5.22665 -2.46583 1 1
508 1 19.61 16.0108 3.54932 0.924836 -0.943706 -0.793551 1 1
509 1 18.704 15.1329 4.46323 0.783537 3.47618 -1.42199 1 1
510 1 20.511 16.9101 4.52032 -5.48492 2.28544 -2.95442 1 1
511 1 19.5862 17.7709 5.38377 0.617673 -6.49407 -0.59978 1 1
512 1 20.485 15.1808 6.23915 -5.59117 2.72411 2.60233 1 1
513 1 1.78145 19.618 3.55955 2.68834 -3.32803 -4.82818 1 1
514 1 0.874638 18.7804 4.44928 -3.93193 5.51357 -4.67242 1 1
515 1 0.916593 20.4621 6.24765 1.95456 5.21904 2.40655 1 1
516 1 2.66448 20.4849 4.43858 9.39755 -3.20066 3.8769 1 1
517 1 0.0246362 17.8214 3.54821 5.67756 4.60131 -1.02547 1 1
518 1 0.0111726 19.6048 5.37064 -8.40615 9.54049 3.91785 1 1
519 1 2.64932 18.7186 6.24771 -10.5684 5.43081 10.7127 1 1
520 1 5.34356 17.8358 5.38224 0.449924 5.01175 -5.97154 1 1
521 1 3.5157 17.7964 3.4967 -0.891408 -0.72895 4.31176 1 1
522 1 3.54925 19.583 5.32373 2.14606 0.102437 -1.99977 1 1
523 1 5.33396 19.5744 3.57771 -1.70658 0.689056 -5.11662 1 1
524 1 4.4259 18.7106 4.4539 -4.59046 2.86583 3.68431 1 1
525 1 4.46842 20.5043 6.24805 1.67028 -2.12332 3.02031 1 1
526 1 6.27409 18.7286 6.2368 9.26379 4.16912 3.45263 1 1
527 1 6.2223 20.4312 4.42906 -7.44472 -6.61813 2.61088 1 1
528 1 7.12016 17.7958 3.54126 3.3534 5.41909 -4.50985 1 1
529 1 7.1276 19.5921 5.38501 5.40927 -3.24411 -9.3763 1 1
530 1 8.90746 21.3771 5.30567 0.966225 0.510835 2.43289 1 1
531 1 8.90196 19.577 3.52224 5.019 -1.59806 -11.1396 1 1
532 1 8.02803 18.6927 4.46757 5.86121 -4.41859 0.996486 1 1
533 1 8.04045 20.5139 6.20486 -5.19719 -6.52057 3.06832 1 1
534 1 9.7967 18.685 6.19468 -1.77189 0.243751 9.0342 1 1
535 1 9.79376 20.5124 4.42606 -3.72341 1.09525 -2.25024 1 1
536 1 10.6756 19.5912 5.314 0.142185 -1.62724 -0.682303 1 1
537 1 10.6954 21.3953 3.55597 -3.20223 7.15491 0.16067 1 1
538 1 12.4113 19.6026 3.54248 8.37917 -5.12008 3.76802 1 1
539 1 11.581 18.6803 4.45312 -3.7521 -1.66643 0.0486282 1 1
540 1 13.3515 18.7144 6.23729 5.67897 -0.567224 2.68613 1 1
541 1 13.3398 20.4896 4.44287 2.36764 -2.1267 2.20349 1 1
542 1 15.9969 17.7933 5.35838 7.63238 -1.88676 2.9806 1 1
543 1 14.2642 0.0258549 3.62293 -4.30178 0.318617 -0.444167 1 1
544 1 14.2605 19.5377 5.28054 7.13209 5.09502 1.87263 1 1
545 1 16.0529 19.6077 3.58338 -9.79872 2.57012 8.09736 1 1
546 1 15.1761 18.6716 4.46843 -1.86459 -3.82558 -4.07759 1 1
547 1 16.9188 18.6983 6.28117 6.2387 1.5148 11.4205 1 1
548 1 16.9654 20.4813 4.45817 -3.37215 2.95678 -0.221913 1 1
549 1 17.8543 19.6085 5.38146 -2.83079 4.99556 -1.18808 1 1
550 1 17.8425 17.8146 3.57763 -3.401 -1.70346 2.50147 1 1
551 1 19.6231 19.6412 3.54051 1.80424 -1.7941 6.00025 1 1
552 1 18.7039 18.714 4.46629 -7.26195 2.68061 6.69012 1 1
553 1 18.7126 20.4857 6.22219 10.618 -0.0451817 1.79428 1 1
554 1 20.4991 18.7475 6.2581 -7.78903 5.00761 1.26264 1 1
555 1 20.5119 20.5098 4.45283 -4.51318 -2.71369 8.01786 1 1
556 1 2.71075 0.882972 6.25639 1.53404 2.36896 1.28512 1 1
557 1 0.907577 2.69462 6.22791 3.24334 1.2679 3.93687 1 1