ITEM: TIMESTEP
800
ITEM: NUMBER OF ATOMS
2953
ITEM: BOX BOUNDS pp pp mm
0.0000000000000000e+00 2.1394294200000001e+01
0.0000000000000000e+00 2.1394294200000001e+01
-4.4571446250000002e-01 5.3485735500000004e+01
ITEM: ATOMS id type x y z vx vy vz v_is_diamond c_structure_type
1 1 0 0 0 0 0 0 1 3
2 1 21.383 1.78276 1.81908 8.4707 -10.2555 9.17522 1 1
3 1 1.79271 0.0159081 1.76414 4.79604 -1.00125 -2.31538 1 1
4 1 1.78286 1.78286 0 0 0 0 1 3
5 1 0.891429 0.891429 0.891429 0 0 0 1 2
6 1 0.873111 2.65478 2.73081 -5.01091 4.64348 -3.95609 1 1
7 1 2.66149 0.88198 2.69923 -8.63249 4.1208 1.78104 1 1
8 1 2.67429 2.67429 0.891429 0 0 0 1 2
9 1 3.56572 0 0 0 0 0 1 3
10 1 3.56091 1.76062 1.78526 2.71757 -4.25963 -3.4443 1 1
11 1 5.36655 21.3864 1.74264 -2.73024 -6.99924 2.47804 1 1
12 1 5.34857 1.78286 0 0 0 0 1 3
13 1 4.45714 0.891429 0.891429 0 0 0 1 2
14 1 4.46533 2.71849 2.6428 7.00794 -6.97408 4.56633 1 1
15 1 6.25695 0.88544 2.71511 7.71218 -2.97302 -4.43593 1 1
16 1 6.24 2.67429 0.891429 0 0 0 1 2
17 1 7.13143 0 0 0 0 0 1 3
18 1 7.16899 1.79129 1.83294 9.51438 -3.7354 0.368618 1 1
19 1 8.9021 21.3881 1.84823 -0.332614 8.30331 2.98114 1 1
20 1 8.91429 1.78286 0 0 0 0 1 3
21 1 8.02286 0.891429 0.891429 0 0 0 1 2
22 1 8.05483 2.69343 2.74507 3.41101 0.183188 1.5799 1 1
23 1 9.8143 0.903479 2.71719 -0.495327 2.26777 9.5774 1 1
24 1 9.80572 2.67429 0.891429 0 0 0 1 2
25 1 10.6971 0 0 0 0 0 1 3
26 1 10.7149 1.80632 1.79681 5.83686 -2.98 0.551028 1 1
27 1 12.4905 0.000945703 1.7801 -8.20268 -1.01074 -1.47062 1 1
28 1 12.48 1.78286 0 0 0 0 1 3
29 1 11.5886 0.891429 0.891429 0 0 0 1 2
30 1 11.6296 2.68433 2.68847 -6.50423 -3.41573 0.665331 1 1
31 1 13.3423 0.895112 2.61862 1.61823 -2.74437 -3.6748 1 1
32 1 13.3714 2.67429 0.891429 0 0 0 1 2
33 1 14.2629 0 0 0 0 0 1 3
34 1 14.2887 1.79884 1.76131 -3.31813 7.31132 1.21574 1 1
35 1 16.0662 21.3897 1.76672 -1.40148 3.80425 0.984366 1 1
36 1 16.0457 1.78286 0 0 0 0 1 3
37 1 15.1543 0.891429 0.891429 0 0 0 1 2
38 1 15.1264 2.67467 2.66731 6.09997 6.29541 -1.4862 1 1
39 1 16.9547 0.914051 2.68823 -4.14172 1.85068 -0.887892 1 1
40 1 16.9371 2.67429 0.891429 0 0 0 1 2
41 1 17.8286 0 0 0 0 0 1 3
42 1 17.8506 1.79734 1.8139 -1.25149 -1.54653 -3.52539 1 1
43 1 19.6169 21.3832 1.79614 -7.00906 0.586419 -9.09948 1 1
44 1 19.6114 1.78286 0 0 0 0 1 3
45 1 18.72 0.891429 0.891429 0 0 0 1 2
46 1 18.7075 2.67725 2.66592 5.18346 4.57471 0.742625 1 1
47 1 20.5273 0.872908 2.73887 3.466 -10.8572 3.1021 1 1
48 1 20.5029 2.67429 0.891429 0 0 0 1 2
49 1 0 3.56572 0 0 0 0 1 3
50 1 21.3817 5.34563 1.81311 -2.49097 5.5428 -3.30116 1 1
51 1 1.75324 3.53788 1.81271 3.12811 -2.65988 2.25742 1 1
52 1 1.78286 5.34857 0 0 0 0 1 3
53 1 0.891429 4.45714 0.891429 0 0 0 1 2
54 1 0.893559 6.25672 2.6906 -1.10822 2.74883 1.22369 1 1
55 1 2.66383 4.42929 2.67225 2.59422 -4.10557 -9.73387 1 1
56 1 2.67429 6.24 0.891429 0 0 0 1 2
57 1 3.56572 3.56572 0 0 0 0 1 3
58 1 3.54818 5.36146 1.80793 -1.42896 4.83659 1.04359 1 1
59 1 5.37031 3.5701 1.76468 0.328611 2.12157 -4.91991 1 1
60 1 5.34857 5.34857 0 0 0 0 1 3
61 1 4.45714 4.45714 0.891429 0 0 0 1 2
62 1 4.47792 6.23263 2.69498 -1.17914 5.71495 1.77635 1 1
63 1 6.25151 4.41292 2.70124 5.6552 -0.785133 1.26109 1 1
64 1 6.24 6.24 0.891429 0 0 0 1 2
65 1 7.13143 3.56572 0 0 0 0 1 3
66 1 7.14677 5.33335 1.81258 -1.47679 3.56386 -3.30972 1 1
67 1 8.9024 3.55358 1.75506 5.39218 6.15294 -3.4779 1 1
68 1 8.91429 5.34857 0 0 0 0 1 3
69 1 8.02286 4.45714 0.891429 0 0 0 1 2
70 1 8.01542 6.22108 2.69932 2.51087 -3.26582 3.23491 1 1
71 1 9.79739 4.45558 2.70724 -2.43329 -0.402142 -2.53389 1 1
72 1 9.80572 6.24 0.891429 0 0 0 1 2
73 1 10.6971 3.56572 0 0 0 0 1 3
74 1 10.6697 5.38479 1.78296 -4.70063 -1.19295 1.27718 1 1
75 1 12.4973 3.58991 1.80257 -5.29565 -0.0393314 3.45388 1 1
76 1 12.48 5.34857 0 0 0 0 1 3
77 1 11.5886 4.45714 0.891429 0 0 0 1 2
78 1 11.6172 6.23865 2.67057 7.7133 -4.27223 -7.93814 1 1
79 1 13.3502 4.5126 2.72284 1.16893 4.1603 -1.77429 1 1
80 1 13.3714 6.24 0.891429 0 0 0 1 2
81 1 14.2629 3.56572 0 0 0 0 1 3
82 1 14.2382 5.34121 1.8143 -3.09934 0.839232 -0.391995 1 1
83 1 16.0368 3.57791 1.78288 1.51437 -0.425061 -3.79932 1 1
84 1 16.0457 5.34857 0 0 0 0 1 3
85 1 15.1543 4.45714 0.891429 0 0 0 1 2
86 1 15.0999 6.2561 2.71221 -2.16479 -3.11436 7.95501 1 1
87 1 16.8763 4.47328 2.6868 -5.17149 6.01633 -5.86974 1 1
88 1 16.9371 6.24 0.891429 0 0 0 1 2
89 1 17.8286 3.56572 0 0 0 0 1 3
90 1 17.8333 5.31618 1.81202 -0.276931 7.11033 5.08325 1 1
91 1 19.6165 3.58457 1.81441 1.33917 0.205476 4.47843 1 1
92 1 19.6114 5.34857 0 0 0 0 1 3
93 1 18.72 4.45714 0.891429 0 0 0 1 2
94 1 18.6673 6.22488 2.73039 1.45901 3.97523 -1.19445 1 1
95 1 20.5047 4.4866 2.66807 -0.788594 -0.397618 3.8345 1 1
96 1 20.5029 6.24 0.891429 0 0 0 1 2
97 1 0 7.13143 0 0 0 0 1 3
98 1 21.3562 8.94304 1.82266 0.441753 -2.5704 -3.80967 1 1
99 1 1.79132 7.16401 1.78639 1.80813 2.03385 1.47538 1 1
100 1 1.78286 8.91429 0 0 0 0 1 3
101 1 0.891429 8.02286 0.891429 0 0 0 1 2
102 1 0.905235 9.82315 2.70364 -0.712109 -0.911177 -4.63407 1 1
103 1 2.67969 8.07652 2.68804 0.926941 -3.72923 10.0946 1 1
104 1 2.67429 9.80572 0.891429 0 0 0 1 2
105 1 3.56572 7.13143 0 0 0 0 1 3
106 1 3.57565 8.97019 1.75195 0.713945 -0.88569 6.99472 1 1
107 1 5.33873 7.13574 1.75757 -7.63756 -3.4515 1.74427 1 1
108 1 5.34857 8.91429 0 0 0 0 1 3
109 1 4.45714 8.02286 0.891429 0 0 0 1 2
110 1 4.45261 9.82541 2.6481 7.61628 9.04976 10.12 1 1
111 1 6.24856 7.99242 2.63682 -1.70623 6.57811 -12.2079 1 1
112 1 6.24 9.80572 0.891429 0 0 0 1 2
113 1 7.13143 7.13143 0 0 0 0 1 3
114 1 7.12246 8.95053 1.78399 -1.01952 2.64643 6.49007 1 1
115 1 8.92029 7.14143 1.79537 7.81689 0.0893868 -1.4751 1 1
116 1 8.91429 8.91429 0 0 0 0 1 3
117 1 8.02286 8.02286 0.891429 0 0 0 1 2
118 1 7.98481 9.81002 2.6746 -7.10251 5.7144 7.85891 1 1
119 1 9.85097 8.04811 2.74007 7.78224 0.0718891 1.30578 1 1
120 1 9.80572 9.80572 0.891429 0 0 0 1 2
121 1 10.6971 7.13143 0 0 0 0 1 3
122 1 10.733 8.91325 1.80143 -1.21159 4.87878 -4.5464 1 1
123 1 12.4618 7.166 1.76509 3.19332 2.79148 3.95113 1 1
124 1 12.48 8.91429 0 0 0 0 1 3
125 1 11.5886 8.02286 0.891429 0 0 0 1 2
126 1 11.5886 9.81791 2.66305 -1.39922 7.62966 -5.47477 1 1
127 1 13.3334 8.0296 2.69256 1.70739 -2.23051 2.16117 1 1
128 1 13.3714 9.80572 0.891429 0 0 0 1 2
129 1 14.2629 7.13143 0 0 0 0 1 3
130 1 14.2503 8.92675 1.82222 5.04756 2.57489 -3.98126 1 1
131 1 16.0082 7.14351 1.8177 -0.506142 -2.58483 1.1628 1 1
132 1 16.0457 8.91429 0 0 0 0 1 3
133 1 15.1543 8.02286 0.891429 0 0 0 1 2
134 1 15.2136 9.79007 2.69968 -1.87466 2.56716 -1.58484 1 1
135 1 16.9096 7.98102 2.72687 6.39814 -5.45982 -8.32163 1 1
136 1 16.9371 9.80572 0.891429 0 0 0 1 2
137 1 17.8286 7.13143 0 0 0 0 1 3
138 1 17.8153 8.89593 1.79717 2.02212 3.83634 -3.31044 1 1
139 1 19.5955 7.10934 1.79928 8.30156 -2.23188 4.04548 1 1
140 1 19.6114 8.91429 0 0 0 0 1 3
141 1 18.72 8.02286 0.891429 0 0 0 1 2
142 1 18.7076 9.87147 2.70303 -9.32018 -5.72314 9.2388 1 1
143 1 20.5201 8.01855 2.70497 0.383447 -3.55967 6.64462 1 1
144 1 20.5029 9.80572 0.891429 0 0 0 1 2
145 1 0 10.6971 0 0 0 0 1 3
146 1 21.3884 12.4695 1.77713 4.75275 -7.61936 -10.563 1 1
147 1 1.80278 10.6735 1.79398 3.45875 1.41349 3.83562 1 1
148 1 1.78286 12.48 0 0 0 0 1 3
149 1 0.891429 11.5886 0.891429 0 0 0 1 2
150 1 0.887275 13.3708 2.69155 -3.38297 -6.65096 -1.90225 1 1
151 1 2.70527 11.5784 2.71586 2.48601 -5.83011 -1.72962 1 1
152 1 2.67429 13.3714 0.891429 0 0 0 1 2
153 1 3.56572 10.6971 0 0 0 0 1 3
154 1 3.61557 12.4662 1.79579 -2.01186 2.79836 -9.68361 1 1
155 1 5.36595 10.723 1.76911 12.6578 0.457103 5.32079 1 1
156 1 5.34857 12.48 0 0 0 0 1 3
157 1 4.45714 11.5886 0.891429 0 0 0 1 2
158 1 4.4817 13.3375 2.67314 0.0584508 -8.51712 -0.751024 1 1
159 1 6.23303 11.5992 2.74682 -2.98698 -0.955056 -2.89388 1 1
160 1 6.24 13.3714 0.891429 0 0 0 1 2
161 1 7.13143 10.6971 0 0 0 0 1 3
162 1 7.17774 12.5138 1.81703 -0.701221 5.98103 10.6641 1 1
163 1 8.90171 10.6989 1.76472 2.08464 2.05718 -0.104307 1 1
164 1 8.91429 12.48 0 0 0 0 1 3
165 1 8.02286 11.5886 0.891429 0 0 0 1 2
166 1 8.0672 13.3667 2.66364 0.597581 0.476854 8.27172 1 1
167 1 9.80533 11.6014 2.68645 1.68238 -4.44565 3.97211 1 1
168 1 9.80572 13.3714 0.891429 0 0 0 1 2
169 1 10.6971 10.6971 0 0 0 0 1 3
170 1 10.7352 12.4731 1.83944 -8.34191 0.619014 10.8584 1 1
171 1 12.4991 10.6842 1.79121 2.45681 -3.1822 2.51936 1 1
172 1 12.48 12.48 0 0 0 0 1 3
173 1 11.5886 11.5886 0.891429 0 0 0 1 2
174 1 11.5949 13.3496 2.72556 2.10439 2.93261 8.48002 1 1
175 1 13.3871 11.6051 2.68862 4.80375 6.17575 6.09579 1 1
176 1 13.3714 13.3714 0.891429 0 0 0 1 2
177 1 14.2629 10.6971 0 0 0 0 1 3
178 1 14.2467 12.472 1.77438 3.84255 -6.44618 -2.2047 1 1
179 1 16.04 10.6903 1.80951 -7.52068 -1.32859 -1.26848 1 1
180 1 16.0457 12.48 0 0 0 0 1 3
181 1 15.1543 11.5886 0.891429 0 0 0 1 2
182 1 15.1454 13.3579 2.67751 -1.04298 6.20488 7.13187 1 1
183 1 16.9219 11.5959 2.66764 0.469622 6.76137 2.11221 1 1
184 1 16.9371 13.3714 0.891429 0 0 0 1 2
185 1 17.8286 10.6971 0 0 0 0 1 3
186 1 17.8478 12.4809 1.80412 -7.2586 0.0248085 2.49294 1 1
187 1 19.5918 10.7104 1.7831 -0.0444219 2.45089 -0.553843 1 1
188 1 19.6114 12.48 0 0 0 0 1 3
189 1 18.72 11.5886 0.891429 0 0 0 1 2
190 1 18.6989 13.421 2.74334 5.06297 1.9175 0.180826 1 1
191 1 20.4919 11.5608 2.70117 -3.0109 -0.260113 -1.38617 1 1
192 1 20.5029 13.3714 0.891429 0 0 0 1 2
193 1 0 14.2629 0 0 0 0 1 3
194 1 0.0241369 16.0551 1.8258 3.41206 -6.12343 9.40934 1 1
195 1 1.75181 14.2962 1.81012 3.69443 -1.75915 -0.986003 1 1
196 1 1.78286 16.0457 0 0 0 0 1 3
197 1 0.891429 15.1543 0.891429 0 0 0 1 2
198 1 0.940299 16.9574 2.72382 -9.08612 -0.161737 5.26486 1 1
199 1 2.66953 15.1518 2.71868 -4.74367 -1.5347 0.409151 1 1
200 1 2.67429 16.9371 0.891429 0 0 0 1 2
201 1 3.56572 14.2629 0 0 0 0 1 3
202 1 3.50915 16.0322 1.77178 -4.80915 8.32094 -3.65926 1 1
203 1 5.31285 14.2691 1.75185 -6.969 -4.07224 1.87159 1 1
204 1 5.34857 16.0457 0 0 0 0 1 3
205 1 4.45714 15.1543 0.891429 0 0 0 1 2
206 1 4.42062 16.9233 2.63957 -1.99974 -0.900462 1.42546 1 1
207 1 6.24707 15.1864 2.66103 -9.13396 7.13882 1.40131 1 1
208 1 6.24 16.9371 0.891429 0 0 0 1 2
209 1 7.13143 14.2629 0 0 0 0 1 3
210 1 7.13273 16.032 1.797 -0.878854 -2.51252 2.08289 1 1
211 1 8.95913 14.2628 1.77545 -0.746384 3.71332 -1.44223 1 1
212 1 8.91429 16.0457 0 0 0 0 1 3
213 1 8.02286 15.1543 0.891429 0 0 0 1 2
214 1 8.03946 16.9062 2.66402 2.10972 2.87106 6.73107 1 1
215 1 9.85777 15.1475 2.68649 -2.55658 -1.06326 4.14824 1 1
216 1 9.80572 16.9371 0.891429 0 0 0 1 2
217 1 10.6971 14.2629 0 0 0 0 1 3
218 1 10.7151 16.0532 1.75257 5.75194 -5.14823 -5.3726 1 1
219 1 12.4706 14.2545 1.83976 1.21643 -0.010222 -3.93874 1 1
220 1 12.48 16.0457 0 0 0 0 1 3
221 1 11.5886 15.1543 0.891429 0 0 0 1 2
222 1 11.5985 16.9011 2.69391 -1.64467 -3.97287 -0.826983 1 1
223 1 13.3645 15.1984 2.70068 0.0716527 -1.97667 0.000400509 1 1
224 1 13.3714 16.9371 0.891429 0 0 0 1 2
225 1 14.2629 14.2629 0 0 0 0 1 3
226 1 14.2717 16.0465 1.81618 -0.572252 -3.74936 1.14754 1 1
227 1 16.0573 14.3033 1.78739 1.05558 1.8092 -6.45327 1 1
228 1 16.0457 16.0457 0 0 0 0 1 3
229 1 15.1543 15.1543 0.891429 0 0 0 1 2
230 1 15.1285 16.9924 2.66389 4.08441 1.06395 -3.07083 1 1
231 1 16.9322 15.1484 2.67206 3.03107 -3.30386 0.572442 1 1
232 1 16.9371 16.9371 0.891429 0 0 0 1 2
233 1 17.8286 14.2629 0 0 0 0 1 3
234 1 17.8799 16.0218 1.78402 7.22003 1.0568 3.96659 1 1
235 1 19.5925 14.2361 1.84103 -2.98869 -0.73372 -2.67593 1 1
236 1 19.6114 16.0457 0 0 0 0 1 3
237 1 18.72 15.1543 0.891429 0 0 0 1 2
238 1 18.7884 16.9144 2.70217 -4.35543 2.13831 10.0736 1 1
239 1 20.5155 15.1935 2.71801 3.83963 -5.09187 10.5417 1 1
240 1 20.5029 16.9371 0.891429 0 0 0 1 2
241 1 0 17.8286 0 0 0 0 1 3
242 1 0.00333412 19.6374 1.82298 0.247402 -10.2098 5.72301 1 1
243 1 1.82173 17.8514 1.75933 -2.04373 5.31819 -6.92388 1 1
244 1 1.78286 19.6114 0 0 0 0 1 3
245 1 0.891429 18.72 0.891429 0 0 0 1 2
246 1 0.938436 20.5197 2.67756 -6.60174 0.791177 -0.234852 1 1
247 1 2.67973 18.7141 2.67241 1.55958 0.300762 0.252919 1 1
248 1 2.67429 20.5029 0.891429 0 0 0 1 2
249 1 3.56572 17.8286 0 0 0 0 1 3
250 1 3.5592 19.6182 1.82086 -2.65243 -1.89453 4.1055 1 1
251 1 5.33643 17.7949 1.76815 -3.65883 -5.7592 -2.19854 1 1
252 1 5.34857 19.6114 0 0 0 0 1 3
253 1 4.45714 18.72 0.891429 0 0 0 1 2
254 1 4.43931 20.5184 2.64456 17.5608 -1.73418 -0.439252 1 1
255 1 6.22268 18.7238 2.69951 -2.63385 5.75055 -3.58104 1 1
256 1 6.24 20.5029 0.891429 0 0 0 1 2
257 1 7.13143 17.8286 0 0 0 0 1 3
258 1 7.13106 19.617 1.80576 -7.77583 2.61882 0.421265 1 1
259 1 8.94748 17.8094 1.71679 -1.00431 -3.49186 3.85174 1 1
260 1 8.91429 19.6114 0 0 0 0 1 3
261 1 8.02286 18.72 0.891429 0 0 0 1 2
262 1 7.94248 20.5015 2.7192 8.23378 0.763063 -3.47871 1 1
263 1 9.7827 18.7071 2.66037 -2.43982 -5.46727 2.48328 1 1
264 1 9.80572 20.5029 0.891429 0 0 0 1 2
265 1 10.6971 17.8286 0 0 0 0 1 3
266 1 10.7037 19.5959 1.78167 -8.42686 7.32941 -1.34801 1 1
267 1 12.4944 17.7672 1.791 -8.3906 -5.26854 0.441777 1 1
268 1 12.48 19.6114 0 0 0 0 1 3
269 1 11.5886 18.72 0.891429 0 0 0 1 2
270 1 11.6164 20.4721 2.67813 0.426481 -2.83552 -10.5901 1 1
271 1 13.392 18.6907 2.70462 4.48628 -1.55555 -0.0534193 1 1
272 1 13.3714 20.5029 0.891429 0 0 0 1 2
273 1 14.2629 17.8286 0 0 0 0 1 3
274 1 14.2721 19.6207 1.80459 -3.70156 -1.57444 -2.69361 1 1
275 1 16.0276 17.8407 1.80086 -0.298366 4.68921 -3.75019 1 1
276 1 16.0457 19.6114 0 0 0 0 1 3
277 1 15.1543 18.72 0.891429 0 0 0 1 2
278 1 15.1696 20.4444 2.70444 2.65307 0.271143 -0.826536 1 1
279 1 16.9404 18.7009 2.70356 2.45001 0.923706 -2.98961 1 1
280 1 16.9371 20.5029 0.891429 0 0 0 1 2
281 1 17.8286 17.8286 0 0 0 0 1 3
282 1 17.8429 19.6178 1.79314 0.279611 -3.24699 2.57847 1 1
283 1 19.6448 17.8158 1.79469 2.44289 -9.8527 3.6816 1 1
284 1 19.6114 19.6114 0 0 0 0 1 3
285 1 18.72 18.72 0.891429 0 0 0 1 2
286 1 18.7536 20.4898 2.70938 -3.80448 -3.87521 2.9316 1 1
287 1 20.5136 18.7411 2.68402 -1.93791 4.71875 4.10688 1 1
288 1 20.5029 20.5029 0.891429 0 0 0 1 2
289 1 0.00542774 0.0423203 3.60984 -0.676434 5.35435 -8.68474 1 1
290 1 0.00510864 1.77602 5.44247 -0.699745 -0.242391 3.9241 1 1
291 1 1.80304 0.0118589 5.42508 -0.142795 8.6279 1.79144 1 1
292 1 1.8029 1.80562 3.59201 -1.63182 -10.5862 6.1026 1 1
293 1 0.896089 0.888639 4.52436 2.66912 -10.1269 0.324128 1 1
294 1 0.881232 2.68612 6.28316 1.02384 5.42103 4.76541 1 1
295 1 2.65684 0.92719 6.31603 10.355 -0.22028 2.04826 1 1
296 1 2.68617 2.6581 4.49328 3.58159 5.00333 -6.46352 1 1
297 1 3.57409 0.0102336 3.59518 9.81922 -1.17306 11.9485 1 1
298 1 3.57642 1.79395 5.39726 -3.22091 3.06646 1.64733 1 1
299 1 5.34673 0.0174402 5.35113 9.61154 6.55174 4.19727 1 1
300 1 5.3585 1.78177 3.60586 -5.31213 3.14324 -0.569829 1 1
301 1 4.41286 0.937091 4.52385 -1.34465 -0.856888 -6.39158 1 1
302 1 4.49366 2.66171 6.32371 6.02156 10.3143 -2.79013 1 1
303 1 6.19812 0.886278 6.28707 -4.05929 1.37032 1.65666 1 1
304 1 6.22915 2.71432 4.53269 -0.696543 3.06642 -4.65963 1 1
305 1 7.09823 0.0281212 3.58436 0.267612 -0.730901 7.82035 1 1
306 1 7.13885 1.76774 5.41345 4.39685 3.1616 1.08069 1 1
307 1 8.87273 21.3539 5.40459 6.32502 -5.03579 -1.49363 1 1
308 1 8.93752 1.82553 3.61891 0.431094 -1.44191 8.35402 1 1
309 1 8.04181 0.907269 4.54177 -2.05959 1.55471 3.85735 1 1
310 1 8.01828 2.68178 6.29686 -10.3036 3.4998 -0.96172 1 1
311 1 9.7799 0.891623 6.28379 5.11887 0.606499 -1.12321 1 1
312 1 9.81162 2.69437 4.52363 4.71885 1.30191 5.84847 1 1
313 1 10.6924 21.3666 3.60219 5.18513 -1.67807 2.6817 1 1
314 1 10.7113 1.74599 5.42808 3.26728 0.604357 4.50003 1 1
315 1 12.4683 0.00202493 5.40665 7.14497 4.11466 3.64602 1 1
316 1 12.4885 1.77874 3.58355 8.34167 1.99727 4.19331 1 1
317 1 11.5815 0.907426 4.50024 7.7519 -4.26303 7.2724 1 1
318 1 11.5734 2.63658 6.27779 0.0366787 -1.59212 -7.52953 1 1
319 1 13.4072 0.837184 6.26877 3.21763 0.792719 -5.69898 1 1
320 1 13.3474 2.65491 4.4981 -1.60822 0.255523 2.16532 1 1
321 1 14.3012 21.3724 3.59108 -3.34574 1.80715 3.45198 1 1
322 1 14.2749 1.781 5.34481 -9.33822 -1.37463 2.69481 1 1
323 1 16.0669 0.0135588 5.37776 8.17347 0.966687 7.4923 1 1
324 1 16 1.83936 3.60092 -3.3661 -1.96427 0.371191 1 1
325 1 15.157 0.890755 4.45856 -0.844423 -3.58492 1.99249 1 1
326 1 15.1416 2.67101 6.29697 4.02995 2.02116 -3.1713 1 1
327 1 16.9438 0.912974 6.30652 -0.22954 6.95547 0.416705 1 1
328 1 16.9419 2.72533 4.48969 3.67295 -0.970153 -1.82969 1 1
329 1 17.8236 0.0261631 3.61772 1.71967 -2.34077 6.00186 1 1
330 1 17.7999 1.81774 5.38481 -3.02483 15.4273 5.17064 1 1
331 1 19.5923 0.0205917 5.36815 -0.569723 -0.765847 9.12663 1 1
332 1 19.596 1.8081 3.58995 -2.47111 0.571264 11.0837 1 1
333 1 18.6856 0.889142 4.46068 -1.67381 2.94728 -10.0184 1 1
334 1 18.72 2.68679 6.31369 -5.07253 -2.85718 3.30301 1 1
335 1 20.4654 0.892795 6.3267 2.82371 3.66155 -1.7749 1 1
336 1 20.5091 2.67967 4.52507 2.86386 2.00402 0.29637 1 1
337 1 0.0203529 3.55878 3.62269 -6.86563 2.36501 1.06059 1 1
338 1 0.017049 5.32348 5.39067 -0.894051 -0.493103 4.36367 1 1
339 1 1.82511 3.56119 5.40299 -1.19055 0.967383 1.88023 1 1
340 1 1.80716 5.34524 3.60532 4.20504 5.94321 2.22524 1 1
341 1 0.937656 4.48249 4.50607 -2.90099 3.41018 4.02976 1 1
342 1 0.916686 6.24178 6.3244 1.06328 7.45557 -1.306 1 1
343 1 2.70249 4.45725 6.29648 5.17984 1.4181 -0.138767 1 1
344 1 2.71385 6.22768 4.50611 -6.87701 -7.1682 1.1786 1 1
345 1 3.56125 3.57415 3.52475 -4.92139 1.88561 -1.53379 1 1
346 1 3.57026 5.34696 5.37737 -6.60037 -2.22299 -6.26394 1 1
347 1 5.35391 3.57913 5.4144 3.37122 -1.01571 -2.3257 1 1
348 1 5.39485 5.34455 3.59409 -2.41948 1.40497 0.782262 1 1
349 1 4.46675 4.45337 4.44331 -3.354 -3.80277 -5.1749 1 1
350 1 4.52259 6.25794 6.26511 0.371748 -7.36489 -2.52566 1 1
351 1 6.25052 4.45693 6.26862 1.17561 -3.83914 6.18574 1 1
352 1 6.268 6.26933 4.47555 6.76755 7.52886 -1.19126 1 1
353 1 7.16257 3.55741 3.62948 -2.28447 -1.48013 2.93148 1 1
354 1 7.15843 5.36545 5.41693 -11.9618 0.197064 4.00221 1 1
355 1 8.91514 3.58867 5.40708 -3.65274 -3.0275 3.04103 1 1
356 1 8.93189 5.34492 3.61717 3.40559 -2.29488 -6.21422 1 1
357 1 8.00039 4.46176 4.54609 7.64627 -3.34621 -0.427238 1 1
358 1 8.02443 6.27084 6.2966 2.01236 -1.41186 -1.94338 1 1
359 1 9.79969 4.45647 6.29457 1.4894 2.57052 -4.48693 1 1
360 1 9.79955 6.25736 4.4899 8.1093 -2.23749 7.35837 1 1
361 1 10.6849 3.57749 3.58149 -5.88042 5.43125 2.29057 1 1
362 1 10.7041 5.33175 5.41461 -2.21302 -1.09783 -0.218203 1 1
363 1 12.4892 3.55998 5.37333 0.584508 2.36184 -5.42398 1 1
364 1 12.484 5.39155 3.6624 2.05767 -15.9111 -2.85734 1 1
365 1 11.6074 4.49228 4.48546 3.41386 3.60626 2.01251 1 1
366 1 11.5867 6.2732 6.30102 5.55879 1.55905 3.67843 1 1
367 1 13.3038 4.42931 6.30289 -3.78488 -2.44613 -1.99741 1 1
368 1 13.3562 6.23022 4.52567 -4.06927 3.76609 0.996518 1 1
369 1 14.272 3.53774 3.59311 -0.462145 4.25178 -1.16009 1 1
370 1 14.2198 5.31383 5.41602 -0.458485 -1.09542 1.84997 1 1
371 1 16.0057 3.57814 5.37154 -8.46166 1.86574 -4.69754 1 1
372 1 16.0489 5.33493 3.5899 -0.0194776 7.6115 2.37475 1 1
373 1 15.0757 4.4555 4.482 3.43037 4.18671 -3.22301 1 1
374 1 15.1011 6.20263 6.23737 -7.59994 -4.42998 -8.32871 1 1
375 1 16.8931 4.46718 6.26318 -2.76567 -11.162 -1.11685 1 1
376 1 16.9142 6.2288 4.50578 1.49522 -3.86549 -1.93668 1 1
377 1 17.8287 3.57206 3.56088 -1.95999 1.74213 11.5619 1 1
378 1 17.8375 5.30755 5.40331 0.965051 2.49517 0.836912 1 1
379 1 19.619 3.58465 5.42639 4.8883 11.7965 2.84366 1 1
380 1 19.5818 5.37219 3.61134 -2.08242 -0.252937 -0.0117941 1 1
381 1 18.7081 4.42487 4.47075 -4.80793 -2.35759 9.52861 1 1
382 1 18.7249 6.24266 6.31831 -2.44015 3.70657 1.1858 1 1
383 1 20.4879 4.46863 6.25071 -2.8246 11.1139 -3.94728 1 1
384 1 20.5605 6.28822 4.5336 -10.0906 -3.19667 -1.23498 1 1
385 1 0.0308017 7.16736 3.59283 0.532973 -3.55859 -5.98133 1 1
386 1 0.0431305 8.91465 5.37035 4.26179 1.62377 -4.0913 1 1
387 1 1.83955 7.16679 5.42346 1.92873 1.47386 6.42026 1 1
388 1 1.80797 8.94487 3.59358 -3.14818 1.08153 -3.47091 1 1
389 1 0.958104 8.04535 4.51292 0.0668337 -4.00467 0.884212 1 1
390 1 0.911082 9.82609 6.2628 4.81591 3.70606 3.27243 1 1
391 1 2.69834 8.05436 6.28377 -2.05757 4.63109 -2.89286 1 1
392 1 2.75757 9.80466 4.48588 7.6056 4.06675 -0.921699 1 1
393 1 3.62308 7.15275 3.56481 -5.90737 -6.17496 -5.18756 1 1
394 1 3.62303 8.89868 5.36571 8.22002 -2.94395 1.90414 1 1
395 1 5.42475 7.12505 5.39407 -1.06114 -0.123692 1.64842 1 1
396 1 5.38857 8.9161 3.55352 -1.64985 6.27622 3.08265 1 1
397 1 4.51662 8.06377 4.51951 6.95355 2.87596 2.70785 1 1
398 1 4.49176 9.82489 6.27182 -3.21153 1.0947 -5.6074 1 1
399 1 6.26556 8.00892 6.30313 -2.80167 0.743711 -0.22225 1 1
400 1 6.25765 9.85756 4.4756 -5.82296 -1.50391 1.27915 1 1
401 1 7.11518 7.15749 3.57141 -4.71773 1.55936 3.09032 1 1
402 1 7.13472 8.95567 5.40028 9.02615 3.3369 1.72888 1 1
403 1 8.9226 7.14187 5.39746 1.50026 3.81847 9.26844 1 1
404 1 8.91002 8.92007 3.61504 -2.03851 -1.3298 -2.7532 1 1
405 1 7.99159 8.01763 4.47231 -1.37856 1.47054 0.133275 1 1
406 1 8.00602 9.80895 6.31825 -1.60493 -6.77112 -4.95481 1 1
407 1 9.79313 8.02729 6.25445 -1.32426 8.65078 6.1195 1 1
408 1 9.78632 9.79979 4.52328 -2.80581 1.67549 -0.791047 1 1
409 1 10.729 7.13535 3.60258 -0.87068 -1.2069 -0.387226 1 1
410 1 10.6823 8.93345 5.39609 1.43433 4.80322 0.262096 1 1
411 1 12.4579 7.12867 5.4244 8.76634 4.22366 3.82069 1 1
412 1 12.4794 8.90539 3.62883 3.27204 -1.75035 5.14853 1 1
413 1 11.6175 8.0417 4.52965 -0.740402 -1.5061 7.63087 1 1
414 1 11.5922 9.822 6.29224 -1.31683 2.99384 5.16452 1 1
415 1 13.3408 8.05111 6.29685 -0.779099 0.976315 -0.715463 1 1
416 1 13.4051 9.85686 4.49447 4.38916 2.72923 3.82266 1 1
417 1 14.2416 7.12792 3.59758 -8.73388 5.04914 -0.890249 1 1
418 1 14.2503 8.89537 5.43266 0.93912 4.07117 -4.32145 1 1
419 1 16.0495 7.08232 5.36184 -2.71835 2.97364 0.558825 1 1
420 1 16.0732 8.88913 3.60888 -6.54086 4.27835 -2.08032 1 1
421 1 15.1284 7.99299 4.51352 1.8975 1.63371 2.83359 1 1
422 1 15.1589 9.77534 6.30932 6.9044 -7.08425 0.295141 1 1
423 1 16.9216 7.99524 6.25491 -2.70673 3.69968 1.77842 1 1
424 1 16.9187 9.81323 4.46065 -4.10976 1.18476 2.87713 1 1
425 1 17.77 7.17534 3.64505 -4.78367 7.93806 4.56115 1 1
426 1 17.8428 8.88652 5.3593 0.0786583 -9.50973 6.64893 1 1
427 1 19.63 7.06874 5.39235 -6.24386 -2.61026 0.240624 1 1
428 1 19.647 8.88379 3.62603 2.16306 2.57514 -1.91578 1 1
429 1 18.7569 7.99528 4.47036 2.11509 5.34413 -0.000818755 1 1
430 1 18.7129 9.78252 6.24946 2.17901 0.512422 4.76726 1 1
431 1 20.5355 8.0331 6.26492 4.32593 -0.530241 1.84329 1 1
432 1 20.505 9.79949 4.49196 4.25878 -8.18047 4.75634 1 1
433 1 21.3745 10.6708 3.60279 -1.51151 -0.775369 4.35385 1 1
434 1 21.3848 12.4975 5.38277 6.08967 -4.15664 5.28768 1 1
435 1 1.76994 10.6569 5.35478 -4.68617 2.892 8.50854 1 1
436 1 1.79358 12.4386 3.55832 6.99921 3.4885 -0.202583 1 1
437 1 0.880638 11.5668 4.43963 -0.500811 2.22037 4.29338 1 1
438 1 0.893523 13.3575 6.28213 3.60354 -5.13139 3.44657 1 1
439 1 2.68874 11.5776 6.26842 6.17511 -0.986664 7.78847 1 1
440 1 2.70507 13.3584 4.50254 -10.1282 10.5567 5.0901 1 1
441 1 3.59711 10.6796 3.58773 5.63355 -2.90625 -3.37269 1 1
442 1 3.58002 12.4424 5.38975 -2.5453 4.27404 2.65937 1 1
443 1 5.40709 10.7267 5.34233 -0.860822 1.59427 5.35891 1 1
444 1 5.36213 12.529 3.58785 3.47782 4.50887 8.21563 1 1
445 1 4.50874 11.5764 4.48752 -6.25561 5.09721 -1.67248 1 1
446 1 4.51894 13.3917 6.30446 1.50158 -6.77 0.257105 1 1
447 1 6.21781 11.6329 6.22923 3.20474 -3.1156 6.01895 1 1
448 1 6.25156 13.4121 4.46096 4.17352 7.07516 -4.22727 1 1
449 1 7.16561 10.7384 3.57272 4.24661 -8.68963 -0.854587 1 1
450 1 7.15465 12.4681 5.37436 -0.410575 -3.79475 -5.11898 1 1
451 1 8.92723 10.7184 5.4322 -2.83943 4.29729 4.30469 1 1
452 1 8.92696 12.4919 3.61469 2.55636 6.38294 4.40305 1 1
453 1 8.0445 11.6024 4.48134 7.03502 5.41712 3.40816 1 1
454 1 8.02676 13.3683 6.26073 2.95193 -3.67715 3.6092 1 1
455 1 9.82771 11.5825 6.2893 0.460744 3.19238 -4.30568 1 1
456 1 9.80251 13.3672 4.50246 -8.67484 2.61045 0.500946 1 1
457 1 10.691 10.662 3.60894 0.171666 -4.07376 -6.64179 1 1
458 1 10.7331 12.5005 5.39611 0.913794 2.96233 4.22003 1 1
459 1 12.4573 10.7328 5.35134 6.56901 0.739123 -4.93043 1 1
460 1 12.5017 12.5181 3.60111 2.98839 5.47788 3.79521 1 1
461 1 11.5904 11.5962 4.47823 -1.82056 -3.25117 4.19655 1 1
462 1 11.6278 13.3604 6.28374 1.23222 -4.37159 1.13322 1 1
463 1 13.4058 11.539 6.26441 1.05805 2.1232 0.266194 1 1
464 1 13.4117 13.3765 4.46851 -3.88905 2.52258 -7.00968 1 1
465 1 14.3193 10.7209 3.62199 -3.28884 3.60939 6.57416 1 1
466 1 14.2997 12.4534 5.37015 -2.65403 6.14888 -5.97388 1 1
467 1 16.0492 10.7077 5.41075 0.786249 -4.13229 -1.41663 1 1
468 1 16.0227 12.4505 3.58261 -3.94032 -2.93788 5.69678 1 1
469 1 15.1779 11.5817 4.49712 -5.2598 3.82105 3.59902 1 1
470 1 15.1989 13.3752 6.27305 -13.0178 2.64535 -2.36971 1 1
471 1 16.9362 11.6144 6.32138 -1.50255 0.713697 -8.056 1 1
472 1 16.9647 13.417 4.4561 6.37034 2.79395 -2.34586 1 1
473 1 17.8349 10.7305 3.62153 -1.12964 -0.18965 -2.79239 1 1
474 1 17.8073 12.4972 5.39283 -6.46433 -4.80293 1.01696 1 1
475 1 19.5961 10.66 5.39616 5.38381 -6.0241 4.90314 1 1
476 1 19.6293 12.5032 3.64742 3.6883 -2.83394 -1.04512 1 1
477 1 18.7316 11.5815 4.49468 3.09414 -2.2931 0.601206 1 1
478 1 18.7009 13.4069 6.28945 -7.51077 1.59762 -10.3524 1 1
479 1 20.4934 11.5922 6.27878 1.48049 4.48156 5.28069 1 1
480 1 20.5393 13.407 4.50475 6.12767 2.9897 -0.137791 1 1
481 1 0.012599 14.2781 3.62431 -0.470851 2.47299 2.0132 1 1
482 1 21.388 16.0945 5.44188 1.3281 1.8513 -6.14845 1 1
483 1 1.80207 14.2741 5.40447 2.18061 4.33761 -4.61505 1 1
484 1 1.77906 16.074 3.59499 2.3052 -7.66165 8.00946 1 1
485 1 0.931977 15.2138 4.49423 2.82904 9.83301 -4.40683 1 1
486 1 0.902387 16.9177 6.31839 0.599007 -9.3074 -0.470974 1 1
487 1 2.70145 15.1259 6.29125 -8.11325 -4.38506 -5.06047 1 1
488 1 2.72346 16.942 4.48276 6.94042 0.756028 -1.40939 1 1
489 1 3.58308 14.2773 3.62055 2.95852 -7.16984 1.53808 1 1
490 1 3.58649 16.051 5.38074 -3.64127 -0.175343 7.98871 1 1
491 1 5.37021 14.3067 5.34158 2.46498 2.44726 0.764615 1 1
492 1 5.34291 16.1047 3.59242 4.1571 0.135028 5.28933 1 1
493 1 4.4645 15.2009 4.45315 8.89443 -0.788612 2.83075 1 1
494 1 4.52712 16.9592 6.29497 -1.67309 10.1184 -1.08741 1 1
495 1 6.31067 15.2088 6.28769 0.453315 2.87842 2.19224 1 1
496 1 6.24362 16.9641 4.44531 -6.39552 -1.22059 4.75996 1 1
497 1 7.12647 14.2576 3.53232 0.336578 0.203546 4.67744 1 1
498 1 7.15604 16.0739 5.33488 -1.20011 2.07127 -1.28408 1 1
499 1 8.87569 14.247 5.34627 0.752731 5.80321 2.93612 1 1
500 1 8.92082 16.0597 3.50378 0.655711 -3.21774 1.95141 1 1
501 1 8.02436 15.1647 4.45343 -6.10631 -4.60397 -3.96509 1 1
502 1 8.00407 16.9704 6.26316 0.322418 8.67831 -0.0967457 1 1
503 1 9.80956 15.1254 6.23778 1.07411 5.07995 -1.72958 1 1
504 1 9.76729 16.8958 4.46045 2.03957 1.60001 -5.32956 1 1
505 1 10.6735 14.2229 3.60257 -1.92829 1.58133 4.01144 1 1
506 1 10.6379 16.0237 5.3333 7.02761 -3.48854 2.675 1 1
507 1 12.5267 14.2634 5.36551 5.55344 2.00184 -0.804562 1 1
508 1 12.4771 16.0706 3.60975 -3.22925 1.20957 10.4559 1 1
509 1 11.6303 15.1573 4.45292 -1.26934 0.135404 -0.193577 1 1
510 1 11.5502 16.9295 6.21072 1.86562 -0.130951 -0.347039 1 1
511 1 13.4207 15.1529 6.28416 7.98558 6.22471 -2.48105 1 1
512 1 13.3638 16.9684 4.4996 -0.203123 -3.8015 -0.314915 1 1
513 1 14.2857 14.2425 3.58377 5.23592 6.34625 16.3873 1 1
514 1 14.3346 16.0587 5.37361 -1.06667 -1.7069 -0.967609 1 1
515 1 16.0655 14.3031 5.38337 8.68139 -1.70842 -5.10028 1 1
516 1 16.0815 16.0814 3.5598 1.34274 -2.36825 5.86037 1 1
517 1 15.188 15.165 4.43259 -5.67006 5.13298 1.38134 1 1
518 1 15.1616 16.9629 6.28533 1.29642 4.87696 6.38305 1 1
519 1 16.9476 15.2164 6.2996 8.38614 -2.52141 -4.41178 1 1
520 1 16.9183 16.9557 4.49016 -0.254047 -8.26029 -3.39786 1 1
521 1 17.7965 14.3249 3.61404 3.45566 -3.8498 -4.40449 1 1
522 1 17.8101 16.0683 5.40141 3.58986 10.0676 -2.51708 1 1
523 1 19.5998 14.2521 5.37486 4.33706 5.62185 -1.48028 1 1
524 1 19.6399 16.0594 3.62233 -10.265 -2.34122 4.82491 1 1
525 1 18.7272 15.1763 4.52632 -1.67891 5.60623 -3.33534 1 1
526 1 18.7059 16.9281 6.30401 2.9465 2.00208 5.26954 1 1
527 1 20.4882 15.1052 6.26933 3.07998 -0.0837743 -7.40983 1 1
528 1 20.5542 16.9487 4.53324 -5.20286 -6.95964 1.82888 1 1
529 1 0.0180902 17.8534 3.57237 -0.732675 4.22837 1.72846 1 1
530 1 0.047307 19.6438 5.39737 -1.46057 -1.99166 11.6918 1 1
531 1 1.77032 17.8086 5.36497 1.95248 3.41976 -2.35032 1 1
532 1 1.79532 19.6458 3.58719 -1.32917 -6.7785 -3.01182 1 1
533 1 0.944234 18.7277 4.48777 3.48827 -2.97609 6.77939 1 1
534 1 0.968163 20.5149 6.29739 5.25986 -0.413736 -4.61855 1 1
535 1 2.66021 18.6987 6.23458 -0.355826 3.33404 -0.510797 1 1
536 1 2.65412 20.5024 4.49947 -0.205237 -8.66474 -2.01609 1 1
537 1 3.58397 17.8354 3.55308 4.20013 -0.874448 0.95058 1 1
538 1 3.5649 19.5959 5.3741 2.35862 -7.43731 -5.55505 1 1
539 1 5.35424 17.896 5.36953 -5.79478 4.97179 -0.227466 1 1
540 1 5.32365 19.6561 3.54772 -1.52163 0.278412 -1.61926 1 1
541 1 4.45412 18.769 4.44317 2.88902 -1.25747 0.530078 1 1
542 1 4.45465 20.5057 6.2762 2.58557 1.77689 -7.44686 1 1
543 1 6.20641 18.7435 6.27162 3.47214 2.4467 -4.45417 1 1
544 1 6.18288 20.4892 4.43688 -10.6001 5.08261 -0.577834 1 1
545 1 7.14002 17.8306 3.57643 -8.2387 5.07855 -1.45236 1 1
546 1 7.06259 19.591 5.38214 1.35516 -7.57505 7.95627 1 1
547 1 8.88559 17.8207 5.37246 -2.71418 0.63344 -3.59617 1 1
548 1 8.85818 19.6064 3.59724 0.0517794 -6.72213 -8.28747 1 1
549 1 7.99315 18.7228 4.48596 1.5636 -1.1998 -7.42308 1 1
550 1 7.93778 20.4981 6.26813 1.4075 4.4945 -4.15809 1 1
551 1 9.78844 18.7295 6.23322 1.46939 -7.09183 -1.49812 1 1
552 1 9.75328 20.4967 4.49347 -2.48519 -1.87612 -3.36531 1 1
553 1 10.6914 17.8221 3.54112 -4.8144 -4.912 2.62596 1 1
554 1 10.6922 19.6314 5.38672 -1.90636 0.687886 5.02143 1 1
555 1 12.4634 17.8267 5.36189 -2.6567 -4.11336 -7.22858 1 1
556 1 12.4367 19.595 3.5651 -3.73406 5.55102 -3.59653 1 1
557 1 11.5881 18.7113 4.45995 2.45962 -3.28452 1.30559 1 1