ITEM: TIMESTEP
600
ITEM: NUMBER OF ATOMS
2953
ITEM: BOX BOUNDS pp pp mm
0.0000000000000000e+00 2.1394294200000001e+01
0.0000000000000000e+00 2.1394294200000001e+01
-4.4571446250000002e-01 5.3485735500000004e+01
ITEM: ATOMS id type x y z vx vy vz v_is_diamond c_structure_type
1 1 0 0 0 0 0 0 1 3
2 1 21.3546 1.82214 1.77492 1.09758 -3.79202 6.48868 1 1
3 1 1.77347 0.0155616 1.78651 1.4539 0.644052 -5.47793 1 1
4 1 1.78286 1.78286 0 0 0 0 1 3
5 1 0.891429 0.891429 0.891429 0 0 0 1 2
6 1 0.901786 2.64844 2.72994 -4.73531 -3.16491 5.24489 1 1
7 1 2.70171 0.880845 2.68229 -4.12673 -4.70544 4.63535 1 1
8 1 2.67429 2.67429 0.891429 0 0 0 1 2
9 1 3.56572 0 0 0 0 0 1 3
10 1 3.55544 1.79117 1.79761 -0.786402 -6.5428 -0.461555 1 1
11 1 5.36525 0.0316743 1.75722 3.63348 -6.72678 -7.91995 1 1
12 1 5.34857 1.78286 0 0 0 0 1 3
13 1 4.45714 0.891429 0.891429 0 0 0 1 2
14 1 4.43466 2.7205 2.63864 3.5967 6.08749 -3.87738 1 1
15 1 6.21357 0.910283 2.72022 7.40124 -5.46604 2.68049 1 1
16 1 6.24 2.67429 0.891429 0 0 0 1 2
17 1 7.13143 0 0 0 0 0 1 3
18 1 7.11197 1.80644 1.82211 10.8303 -1.50978 3.55433 1 1
19 1 8.90262 21.3544 1.81582 0.215527 3.64652 8.74265 1 1
20 1 8.91429 1.78286 0 0 0 0 1 3
21 1 8.02286 0.891429 0.891429 0 0 0 1 2
22 1 8.02943 2.68614 2.72145 6.31574 2.48222 7.08213 1 1
23 1 9.8124 0.891941 2.67191 1.77933 2.1168 7.03385 1 1
24 1 9.80572 2.67429 0.891429 0 0 0 1 2
25 1 10.6971 0 0 0 0 0 1 3
26 1 10.6878 1.80866 1.7918 3.40386 2.02851 1.65892 1 1
27 1 12.5136 21.394 1.78482 0.0898955 1.08785 -1.12405 1 1
28 1 12.48 1.78286 0 0 0 0 1 3
29 1 11.5886 0.891429 0.891429 0 0 0 1 2
30 1 11.6372 2.70137 2.68506 4.01688 -2.23637 1.1844 1 1
31 1 13.3616 0.902904 2.66528 -8.05086 0.638233 -12.4599 1 1
32 1 13.3714 2.67429 0.891429 0 0 0 1 2
33 1 14.2629 0 0 0 0 0 1 3
34 1 14.283 1.75804 1.76427 5.42399 6.79859 -2.73013 1 1
35 1 16.0645 21.3747 1.77922 1.93157 1.35273 -5.30341 1 1
36 1 16.0457 1.78286 0 0 0 0 1 3
37 1 15.1543 0.891429 0.891429 0 0 0 1 2
38 1 15.1122 2.65418 2.67908 -1.14109 1.37349 -2.72621 1 1
39 1 16.9614 0.903205 2.69631 1.71267 1.83653 -1.39491 1 1
40 1 16.9371 2.67429 0.891429 0 0 0 1 2
41 1 17.8286 0 0 0 0 0 1 3
42 1 17.843 1.79632 1.80977 4.02716 2.23428 4.91752 1 1
43 1 19.651 21.3887 1.83758 -4.74909 -3.10013 -4.83778 1 1
44 1 19.6114 1.78286 0 0 0 0 1 3
45 1 18.72 0.891429 0.891429 0 0 0 1 2
46 1 18.6987 2.66693 2.67368 -2.06305 -0.573818 -2.39181 1 1
47 1 20.4995 0.935377 2.70386 5.28042 -10.6279 9.2008 1 1
48 1 20.5029 2.67429 0.891429 0 0 0 1 2
49 1 0 3.56572 0 0 0 0 1 3
50 1 0.00824716 5.33383 1.81154 -4.56526 -1.31729 3.67439 1 1
51 1 1.7502 3.55902 1.79501 -2.4455 -4.8637 3.67358 1 1
52 1 1.78286 5.34857 0 0 0 0 1 3
53 1 0.891429 4.45714 0.891429 0 0 0 1 2
54 1 0.905044 6.24234 2.69223 -2.79728 2.36946 -1.912 1 1
55 1 2.65125 4.4605 2.71942 1.26102 -6.18127 -6.5975 1 1
56 1 2.67429 6.24 0.891429 0 0 0 1 2
57 1 3.56572 3.56572 0 0 0 0 1 3
58 1 3.56143 5.33015 1.79623 -3.07143 5.7634 2.71922 1 1
59 1 5.35979 3.56197 1.79266 3.63373 0.460057 -4.50878 1 1
60 1 5.34857 5.34857 0 0 0 0 1 3
61 1 4.45714 4.45714 0.891429 0 0 0 1 2
62 1 4.48563 6.21449 2.67918 -1.82201 0.692132 3.49613 1 1
63 1 6.23736 4.43263 2.69415 -0.398753 -5.80571 0.991047 1 1
64 1 6.24 6.24 0.891429 0 0 0 1 2
65 1 7.13143 3.56572 0 0 0 0 1 3
66 1 7.14453 5.31939 1.81737 2.35644 0.989161 1.84434 1 1
67 1 8.88768 3.53694 1.79219 -0.204754 -0.419346 -9.34301 1 1
68 1 8.91429 5.34857 0 0 0 0 1 3
69 1 8.02286 4.45714 0.891429 0 0 0 1 2
70 1 8.01168 6.24342 2.68834 -0.898151 -4.00909 0.752844 1 1
71 1 9.80793 4.45994 2.70837 -1.44031 -0.779875 1.71485 1 1
72 1 9.80572 6.24 0.891429 0 0 0 1 2
73 1 10.6971 3.56572 0 0 0 0 1 3
74 1 10.7057 5.36912 1.7872 -7.43515 6.19404 -3.099 1 1
75 1 12.5133 3.58661 1.78761 -0.358309 1.45086 1.99121 1 1
76 1 12.48 5.34857 0 0 0 0 1 3
77 1 11.5886 4.45714 0.891429 0 0 0 1 2
78 1 11.5702 6.27243 2.71651 8.52022 -7.72285 -8.16122 1 1
79 1 13.3543 4.47342 2.7266 -2.72408 8.93435 0.716011 1 1
80 1 13.3714 6.24 0.891429 0 0 0 1 2
81 1 14.2629 3.56572 0 0 0 0 1 3
82 1 14.2566 5.3506 1.80794 -3.42332 -3.6334 2.9224 1 1
83 1 16.0242 3.57174 1.8024 2.69921 3.07626 -3.17242 1 1
84 1 16.0457 5.34857 0 0 0 0 1 3
85 1 15.1543 4.45714 0.891429 0 0 0 1 2
86 1 15.1305 6.25735 2.67072 -8.87862 3.05985 6.51257 1 1
87 1 16.925 4.43103 2.70729 -11.1669 8.75378 -0.685323 1 1
88 1 16.9371 6.24 0.891429 0 0 0 1 2
89 1 17.8286 3.56572 0 0 0 0 1 3
90 1 17.8184 5.30224 1.78536 5.20176 -1.8325 4.17591 1 1
91 1 19.6075 3.57523 1.77723 1.86419 3.14202 8.26775 1 1
92 1 19.6114 5.34857 0 0 0 0 1 3
93 1 18.72 4.45714 0.891429 0 0 0 1 2
94 1 18.6738 6.21759 2.72514 -4.10441 -0.802177 3.94163 1 1
95 1 20.5067 4.47411 2.67784 -0.426669 5.13181 -6.54033 1 1
96 1 20.5029 6.24 0.891429 0 0 0 1 2
97 1 0 7.13143 0 0 0 0 1 3
98 1 21.3776 8.94198 1.82516 -7.95948 2.91059 3.06099 1 1
99 1 1.78167 7.14517 1.78257 1.36927 4.75459 0.0543816 1 1
100 1 1.78286 8.91429 0 0 0 0 1 3
101 1 0.891429 8.02286 0.891429 0 0 0 1 2
102 1 0.900778 9.818 2.72325 1.99171 2.65577 -1.86137 1 1
103 1 2.68668 8.07897 2.63764 -3.25097 3.10845 7.52592 1 1
104 1 2.67429 9.80572 0.891429 0 0 0 1 2
105 1 3.56572 7.13143 0 0 0 0 1 3
106 1 3.56731 8.9465 1.73244 2.63145 9.58709 0.54896 1 1
107 1 5.37829 7.14103 1.7637 -6.10066 1.6509 -4.21489 1 1
108 1 5.34857 8.91429 0 0 0 0 1 3
109 1 4.45714 8.02286 0.891429 0 0 0 1 2
110 1 4.43274 9.78391 2.6129 0.0324402 5.60586 2.21046 1 1
111 1 6.25554 7.98539 2.70032 -1.44345 -3.68497 -9.66376 1 1
112 1 6.24 9.80572 0.891429 0 0 0 1 2
113 1 7.13143 7.13143 0 0 0 0 1 3
114 1 7.12845 8.91527 1.75502 -1.42286 9.62328 3.04151 1 1
115 1 8.88664 7.13839 1.80596 4.1196 1.10178 -1.93651 1 1
116 1 8.91429 8.91429 0 0 0 0 1 3
117 1 8.02286 8.02286 0.891429 0 0 0 1 2
118 1 8.03594 9.79362 2.6471 -10.2428 0.259605 1.76316 1 1
119 1 9.80168 8.03802 2.71674 9.96426 3.75455 6.65976 1 1
120 1 9.80572 9.80572 0.891429 0 0 0 1 2
121 1 10.6971 7.13143 0 0 0 0 1 3
122 1 10.7193 8.89621 1.81642 6.16259 1.42137 -1.01484 1 1
123 1 12.4587 7.1356 1.76089 -1.66362 7.52491 -2.79606 1 1
124 1 12.48 8.91429 0 0 0 0 1 3
125 1 11.5886 8.02286 0.891429 0 0 0 1 2
126 1 11.6002 9.77791 2.70807 -1.86396 5.61679 -9.97104 1 1
127 1 13.3394 8.03671 2.69003 -3.68117 0.375546 -1.23178 1 1
128 1 13.3714 9.80572 0.891429 0 0 0 1 2
129 1 14.2629 7.13143 0 0 0 0 1 3
130 1 14.237 8.91127 1.8275 -0.523809 2.80532 2.30564 1 1
131 1 16.0215 7.14448 1.80717 -4.47758 1.63184 2.7118 1 1
132 1 16.0457 8.91429 0 0 0 0 1 3
133 1 15.1543 8.02286 0.891429 0 0 0 1 2
134 1 15.1983 9.78166 2.71253 6.56346 0.752892 -2.34501 1 1
135 1 16.895 8.02252 2.75306 -2.34123 -7.55357 -0.583229 1 1
136 1 16.9371 9.80572 0.891429 0 0 0 1 2
137 1 17.8286 7.13143 0 0 0 0 1 3
138 1 17.8093 8.88796 1.81722 -0.0875368 -1.35083 -3.51379 1 1
139 1 19.5637 7.12758 1.78594 2.64143 -3.92866 0.879417 1 1
140 1 19.6114 8.91429 0 0 0 0 1 3
141 1 18.72 8.02286 0.891429 0 0 0 1 2
142 1 18.7503 9.86022 2.66625 -5.32714 9.79574 3.35153 1 1
143 1 20.5076 8.03661 2.6785 4.07962 -2.51977 2.5243 1 1
144 1 20.5029 9.80572 0.891429 0 0 0 1 2
145 1 0 10.6971 0 0 0 0 1 3
146 1 21.3713 12.5056 1.83328 0.974519 -5.47711 -9.09592 1 1
147 1 1.78228 10.6838 1.77918 3.65097 -4.89253 1.16835 1 1
148 1 1.78286 12.48 0 0 0 0 1 3
149 1 0.891429 11.5886 0.891429 0 0 0 1 2
150 1 0.899865 13.4002 2.70351 -0.798287 -3.86012 -2.86469 1 1
151 1 2.69033 11.5976 2.7064 3.49662 -1.05086 4.50485 1 1
152 1 2.67429 13.3714 0.891429 0 0 0 1 2
153 1 3.56572 10.6971 0 0 0 0 1 3
154 1 3.59852 12.4603 1.83776 7.82061 -1.72378 -4.80082 1 1
155 1 5.30818 10.7117 1.75746 7.24361 4.08858 -0.987347 1 1
156 1 5.34857 12.48 0 0 0 0 1 3
157 1 4.45714 11.5886 0.891429 0 0 0 1 2
158 1 4.47461 13.4022 2.68401 2.19578 -13.9738 -3.06235 1 1
159 1 6.25678 11.6146 2.72118 -4.48879 -3.80207 12.7263 1 1
160 1 6.24 13.3714 0.891429 0 0 0 1 2
161 1 7.13143 10.6971 0 0 0 0 1 3
162 1 7.15909 12.4705 1.756 7.19195 8.65856 10.8147 1 1
163 1 8.90135 10.6902 1.77575 -2.43132 0.898088 -3.18841 1 1
164 1 8.91429 12.48 0 0 0 0 1 3
165 1 8.02286 11.5886 0.891429 0 0 0 1 2
166 1 8.05694 13.3723 2.63984 3.49877 -1.33448 0.756356 1 1
167 1 9.80062 11.6056 2.67512 -0.368451 3.17178 1.01315 1 1
168 1 9.80572 13.3714 0.891429 0 0 0 1 2
169 1 10.6971 10.6971 0 0 0 0 1 3
170 1 10.7528 12.471 1.7687 2.68157 -0.0711243 14.2825 1 1
171 1 12.4794 10.7043 1.78059 4.73748 -2.97595 1.37142 1 1
172 1 12.48 12.48 0 0 0 0 1 3
173 1 11.5886 11.5886 0.891429 0 0 0 1 2
174 1 11.5889 13.3469 2.68233 -0.514188 -1.63998 7.45929 1 1
175 1 13.3669 11.5714 2.66442 2.26083 5.58649 2.84779 1 1
176 1 13.3714 13.3714 0.891429 0 0 0 1 2
177 1 14.2629 10.6971 0 0 0 0 1 3
178 1 14.2416 12.5009 1.78427 -1.84062 -2.65426 -0.776654 1 1
179 1 16.081 10.6948 1.80043 -6.23289 0.26016 4.13059 1 1
180 1 16.0457 12.48 0 0 0 0 1 3
181 1 15.1543 11.5886 0.891429 0 0 0 1 2
182 1 15.1528 13.336 2.64339 -1.57995 1.46885 4.93541 1 1
183 1 16.9346 11.567 2.67413 -5.87749 2.87487 -3.98426 1 1
184 1 16.9371 13.3714 0.891429 0 0 0 1 2
185 1 17.8286 10.6971 0 0 0 0 1 3
186 1 17.8642 12.4856 1.7927 1.48437 -1.19191 1.61834 1 1
187 1 19.6029 10.7012 1.78644 -4.59434 0.350328 -0.141009 1 1
188 1 19.6114 12.48 0 0 0 0 1 3
189 1 18.72 11.5886 0.891429 0 0 0 1 2
190 1 18.6863 13.3941 2.73659 -0.836616 6.9068 2.59867 1 1
191 1 20.5049 11.5805 2.70545 -1.25511 -6.9949 -0.205509 1 1
192 1 20.5029 13.3714 0.891429 0 0 0 1 2
193 1 0 14.2629 0 0 0 0 1 3
194 1 0.00471457 16.0851 1.76898 3.24481 -4.29814 10.9294 1 1
195 1 1.75456 14.2843 1.81178 -4.76616 5.31403 0.444896 1 1
196 1 1.78286 16.0457 0 0 0 0 1 3
197 1 0.891429 15.1543 0.891429 0 0 0 1 2
198 1 0.960401 16.9608 2.67646 2.6226 -0.660475 11.1955 1 1
199 1 2.68118 15.1632 2.70648 0.488508 -2.3997 4.06472 1 1
200 1 2.67429 16.9371 0.891429 0 0 0 1 2
201 1 3.56572 14.2629 0 0 0 0 1 3
202 1 3.55677 15.9994 1.79278 -12.1033 2.63518 -3.24327 1 1
203 1 5.36478 14.2854 1.76226 -11.3767 -1.3788 -5.18478 1 1
204 1 5.34857 16.0457 0 0 0 0 1 3
205 1 4.45714 15.1543 0.891429 0 0 0 1 2
206 1 4.44194 16.9364 2.64667 -5.451 -3.90075 -3.8918 1 1
207 1 6.27437 15.1442 2.65759 -1.00994 6.95769 0.476872 1 1
208 1 6.24 16.9371 0.891429 0 0 0 1 2
209 1 7.13143 14.2629 0 0 0 0 1 3
210 1 7.13924 16.0502 1.77256 -1.36025 -3.36599 6.55024 1 1
211 1 8.95082 14.2479 1.7843 3.59707 1.39923 -1.10273 1 1
212 1 8.91429 16.0457 0 0 0 0 1 3
213 1 8.02286 15.1543 0.891429 0 0 0 1 2
214 1 8.02897 16.9172 2.62567 0.95121 -6.59587 6.16493 1 1
215 1 9.84747 15.152 2.65804 6.29792 -0.397909 5.10369 1 1
216 1 9.80572 16.9371 0.891429 0 0 0 1 2
217 1 10.6971 14.2629 0 0 0 0 1 3
218 1 10.6912 16.0676 1.79319 2.4801 -0.50917 -8.32765 1 1
219 1 12.4684 14.2635 1.83645 -0.655026 -3.17767 5.62747 1 1
220 1 12.48 16.0457 0 0 0 0 1 3
221 1 11.5886 15.1543 0.891429 0 0 0 1 2
222 1 11.6031 16.9366 2.6857 -0.391622 -8.9463 3.84221 1 1
223 1 13.3726 15.1857 2.70124 -2.73832 6.47329 1.39349 1 1
224 1 13.3714 16.9371 0.891429 0 0 0 1 2
225 1 14.2629 14.2629 0 0 0 0 1 3
226 1 14.2662 16.07 1.79414 2.53255 -4.01616 6.29173 1 1
227 1 16.0454 14.2691 1.81271 2.92464 9.75317 -2.11637 1 1
228 1 16.0457 16.0457 0 0 0 0 1 3
229 1 15.1543 15.1543 0.891429 0 0 0 1 2
230 1 15.1315 16.956 2.68876 -4.1071 10.5869 -5.48103 1 1
231 1 16.9295 15.185 2.676 -1.51147 -8.90872 -2.01994 1 1
232 1 16.9371 16.9371 0.891429 0 0 0 1 2
233 1 17.8286 14.2629 0 0 0 0 1 3
234 1 17.8302 16.0312 1.77224 9.99804 -4.31174 0.823565 1 1
235 1 19.6162 14.2644 1.83485 -4.6186 -8.90628 5.05277 1 1
236 1 19.6114 16.0457 0 0 0 0 1 3
237 1 18.72 15.1543 0.891429 0 0 0 1 2
238 1 18.7865 16.9179 2.65899 5.07991 -3.27127 5.70804 1 1
239 1 20.5049 15.1965 2.67281 -1.01884 3.47811 6.04587 1 1
240 1 20.5029 16.9371 0.891429 0 0 0 1 2
241 1 0 17.8286 0 0 0 0 1 3
242 1 0.0103615 19.6712 1.78135 -3.07572 -1.37351 8.47842 1 1
243 1 1.8143 17.8208 1.80373 4.25553 4.71043 -8.14859 1 1
244 1 1.78286 19.6114 0 0 0 0 1 3
245 1 0.891429 18.72 0.891429 0 0 0 1 2
246 1 0.9435 20.5253 2.68895 4.88373 -2.99472 -3.84067 1 1
247 1 2.67687 18.7269 2.67803 -0.481845 -4.80942 -1.93389 1 1
248 1 2.67429 20.5029 0.891429 0 0 0 1 2
249 1 3.56572 17.8286 0 0 0 0 1 3
250 1 3.56713 19.6236 1.777 0.57348 0.165335 11.0585 1 1
251 1 5.35396 17.8347 1.7835 -2.61939 -7.95459 -3.1621 1 1
252 1 5.34857 19.6114 0 0 0 0 1 3
253 1 4.45714 18.72 0.891429 0 0 0 1 2
254 1 4.37566 20.53 2.66276 4.83179 -2.27323 -5.45523 1 1
255 1 6.23917 18.6952 2.70013 -3.76715 4.12693 3.18304 1 1
256 1 6.24 20.5029 0.891429 0 0 0 1 2
257 1 7.13143 17.8286 0 0 0 0 1 3
258 1 7.15141 19.5982 1.7978 0.635327 4.07786 2.09316 1 1
259 1 8.92772 17.8335 1.73356 7.47558 -5.18161 -9.32284 1 1
260 1 8.91429 19.6114 0 0 0 0 1 3
261 1 8.02286 18.72 0.891429 0 0 0 1 2
262 1 7.94317 20.502 2.72672 -8.71801 -0.652764 1.29733 1 1
263 1 9.79905 18.735 2.65336 -3.24201 -4.41493 -0.477321 1 1
264 1 9.80572 20.5029 0.891429 0 0 0 1 2
265 1 10.6971 17.8286 0 0 0 0 1 3
266 1 10.7376 19.5751 1.79003 -3.55383 -0.689835 -1.76306 1 1
267 1 12.5253 17.8179 1.79006 -2.13781 -12.6842 0.286199 1 1
268 1 12.48 19.6114 0 0 0 0 1 3
269 1 11.5886 18.72 0.891429 0 0 0 1 2
270 1 11.5975 20.4945 2.72407 5.17017 -4.66106 -5.93884 1 1
271 1 13.3672 18.7058 2.70105 3.70316 -4.19188 1.28244 1 1
272 1 13.3714 20.5029 0.891429 0 0 0 1 2
273 1 14.2629 17.8286 0 0 0 0 1 3
274 1 14.2825 19.6111 1.81171 0.152771 4.54749 0.0975682 1 1
275 1 16.039 17.8192 1.81071 -3.64004 3.00674 0.0890503 1 1
276 1 16.0457 19.6114 0 0 0 0 1 3
277 1 15.1543 18.72 0.891429 0 0 0 1 2
278 1 15.1701 20.4667 2.70575 -2.91771 -7.64463 0.733177 1 1
279 1 16.9497 18.7002 2.71046 -5.78169 -0.00528387 0.876019 1 1
280 1 16.9371 20.5029 0.891429 0 0 0 1 2
281 1 17.8286 17.8286 0 0 0 0 1 3
282 1 17.8389 19.6247 1.78511 0.956453 0.549689 0.442358 1 1
283 1 19.6263 17.8668 1.77437 3.91995 -7.70484 4.02557 1 1
284 1 19.6114 19.6114 0 0 0 0 1 3
285 1 18.72 18.72 0.891429 0 0 0 1 2
286 1 18.7496 20.5214 2.69017 4.73581 -7.17252 3.93113 1 1
287 1 20.5243 18.7197 2.67245 -1.8252 2.11789 0.728012 1 1
288 1 20.5029 20.5029 0.891429 0 0 0 1 2
289 1 0.0245968 0.0135334 3.63886 -5.46812 3.06342 -0.675402 1 1
290 1 21.3928 1.78083 5.40931 3.28304 -1.69935 7.56763 1 1
291 1 1.7981 21.3768 5.4075 3.1451 0.705113 4.09584 1 1
292 1 1.80063 1.8272 3.57602 1.60125 3.12945 -0.319539 1 1
293 1 0.890444 0.939066 4.51935 -0.886267 -7.14316 1.89855 1 1
294 1 0.883364 2.6661 6.2804 -1.44305 1.85493 -3.70638 1 1
295 1 2.61832 0.916887 6.30721 3.00186 4.63659 1.63181 1 1
296 1 2.68131 2.65376 4.51758 -2.23564 -3.27457 -2.18407 1 1
297 1 3.51961 0.0191213 3.54442 8.81864 -2.13015 5.67016 1 1
298 1 3.57839 1.78195 5.40434 3.12597 1.98552 -3.99466 1 1
299 1 5.29152 21.377 5.35088 8.84134 6.26974 -4.23094 1 1
300 1 5.36762 1.78464 3.60641 2.57316 -3.95324 -0.046891 1 1
301 1 4.43958 0.916513 4.52488 -6.9871 8.14852 6.3007 1 1
302 1 4.44606 2.63059 6.32814 10.6035 0.332769 1.08153 1 1
303 1 6.22622 0.878843 6.28371 -4.47493 1.39444 -0.135854 1 1
304 1 6.24426 2.67749 4.54019 -4.12408 9.33755 1.96607 1 1
305 1 7.10368 0.0176523 3.56604 -1.64834 3.67416 -0.90102 1 1
306 1 7.11475 1.76739 5.41085 3.32019 -2.54307 0.330659 1 1
307 1 8.85256 -0.00264028 5.41029 0.605762 -7.94608 -0.730349 1 1
308 1 8.93173 1.8124 3.58449 2.40726 6.30106 4.9936 1 1
309 1 8.03221 0.89493 4.49911 5.82129 2.60919 11.5451 1 1
310 1 8.06487 2.66654 6.29736 -6.01851 1.89993 0.994503 1 1
311 1 9.76564 0.871298 6.29931 0.046813 6.12063 -4.11253 1 1
312 1 9.7977 2.68599 4.48954 0.176388 1.68572 7.01306 1 1
313 1 10.6682 21.3866 3.58652 3.76157 -5.46139 3.01479 1 1
314 1 10.6785 1.76248 5.38916 8.5331 -6.22947 8.75354 1 1
315 1 12.437 21.3729 5.38229 3.82577 4.03852 5.73336 1 1
316 1 12.4478 1.77163 3.56435 5.44836 0.475674 2.63707 1 1
317 1 11.5474 0.90816 4.46538 5.20428 3.73754 5.59898 1 1
318 1 11.5827 2.65195 6.31442 -2.22189 -3.426 -4.86015 1 1
319 1 13.3761 0.859264 6.29002 7.45624 -7.63293 -0.910575 1 1
320 1 13.3683 2.65461 4.478 -4.75383 0.449835 4.28477 1 1
321 1 14.2953 21.3728 3.56844 5.27027 -2.29459 4.20357 1 1
322 1 14.305 1.77561 5.35259 -0.909357 2.96086 -4.98047 1 1
323 1 16.028 0.00556752 5.34604 5.36938 2.50903 4.4174 1 1
324 1 16.0374 1.82583 3.58457 -9.48812 7.00866 5.30152 1 1
325 1 15.1684 0.910408 4.4558 -3.12592 -2.94456 -0.607044 1 1
326 1 15.1278 2.6659 6.29679 0.564011 -0.361381 2.90491 1 1
327 1 16.937 0.879239 6.29697 3.26471 5.56248 3.49034 1 1
328 1 16.9148 2.71386 4.49206 4.53672 5.56742 1.06645 1 1
329 1 17.825 0.0224584 3.57396 -2.73742 3.6241 8.5952 1 1
330 1 17.8268 1.74468 5.36745 -6.0063 10.3948 0.441843 1 1
331 1 19.5979 0.0176141 5.34073 -1.19389 2.34566 0.231646 1 1
332 1 19.6091 1.79629 3.54892 -1.66818 3.03599 3.15373 1 1
333 1 18.7051 0.892873 4.5144 -5.31561 -3.06674 -6.92786 1 1
334 1 18.7303 2.69629 6.29402 2.41056 0.760726 3.67128 1 1
335 1 20.4644 0.883845 6.31137 -2.30004 -0.112026 6.59149 1 1
336 1 20.4924 2.66881 4.51681 2.85044 2.37621 3.6166 1 1
337 1 0.0426268 3.55578 3.61383 -0.81064 -0.711495 2.17664 1 1
338 1 0.0313187 5.34145 5.37664 -4.33966 -4.32319 0.43783 1 1
339 1 1.81716 3.558 5.39155 4.14847 0.395257 1.93913 1 1
340 1 1.78941 5.32871 3.59022 1.55187 -0.499725 2.6443 1 1
341 1 0.939168 4.44967 4.48685 2.3392 7.96371 2.81578 1 1
342 1 0.911559 6.21248 6.3084 0.736586 2.37201 7.56372 1 1
343 1 2.68022 4.45043 6.29503 2.33245 0.73607 0.701318 1 1
344 1 2.7386 6.27399 4.49151 -2.02518 -8.69792 3.95887 1 1
345 1 3.58744 3.56377 3.55903 -3.67475 1.05899 -11.5248 1 1
346 1 3.61638 5.35964 5.4083 -9.11769 -2.94046 -4.67864 1 1
347 1 5.33691 3.5779 5.41508 2.41955 1.83437 1.82655 1 1
348 1 5.3902 5.33689 3.58518 4.38504 1.70607 1.99392 1 1
349 1 4.48105 4.46992 4.48639 -2.13442 -1.80996 -10.1296 1 1
350 1 4.50352 6.28504 6.28176 5.69485 -2.30461 -3.67832 1 1
351 1 6.24999 4.48123 6.254 -1.5191 -4.28737 -0.373715 1 1
352 1 6.24575 6.22295 4.48494 0.491916 8.50759 -1.82364 1 1
353 1 7.15486 3.57092 3.61608 5.23721 -3.08257 1.7949 1 1
354 1 7.19144 5.36626 5.38948 1.09182 -0.419216 5.42138 1 1
355 1 8.92812 3.59118 5.3967 -1.18243 2.22336 1.36775 1 1
356 1 8.89966 5.3571 3.63613 7.67723 -2.0282 0.45902 1 1
357 1 7.99526 4.47885 4.52837 -6.288 -2.42791 6.94699 1 1
358 1 8.02533 6.26294 6.31016 -2.36562 4.35674 -2.04038 1 1
359 1 9.80011 4.44618 6.32423 -1.03738 0.945441 -5.25028 1 1
360 1 9.77554 6.25783 4.46587 0.771819 1.98933 1.21516 1 1
361 1 10.7277 3.55534 3.57909 -8.77103 2.20891 -1.17417 1 1
362 1 10.7042 5.35067 5.4068 3.34652 -4.81972 3.19943 1 1
363 1 12.4682 3.54274 5.40287 5.89798 3.3606 -5.23525 1 1
364 1 12.4689 5.44129 3.6396 3.60701 -1.10586 10.5642 1 1
365 1 11.5826 4.46231 4.48808 5.00494 6.67697 -2.92655 1 1
366 1 11.5493 6.25008 6.27912 7.00829 6.82909 4.01081 1 1
367 1 13.3417 4.44614 6.30572 -8.9194 -3.37374 1.18855 1 1
368 1 13.3731 6.22996 4.52475 -2.05155 -3.93266 -0.155298 1 1
369 1 14.2436 3.53168 3.59369 9.94018 -1.71779 0.585473 1 1
370 1 14.2194 5.32727 5.39589 -0.472905 -3.84789 4.12386 1 1
371 1 16.0483 3.57363 5.40047 -6.39408 -0.165683 -6.00783 1 1
372 1 16.0264 5.31166 3.58489 6.97105 1.35004 -0.479267 1 1
373 1 15.0912 4.4294 4.50269 -8.71013 5.16569 -4.00697 1 1
374 1 15.1436 6.23169 6.29589 -6.78288 -6.30418 -11.8258 1 1
375 1 16.9105 4.50055 6.28277 -3.51402 -0.8469 -5.77878 1 1
376 1 16.9197 6.23426 4.50655 -2.97605 2.57604 1.98351 1 1
377 1 17.83 3.56311 3.52026 0.954455 1.79326 2.02561 1 1
378 1 17.8247 5.31672 5.39157 2.90055 -5.97162 3.77627 1 1
379 1 19.591 3.52348 5.39225 4.21545 9.31812 9.18575 1 1
380 1 19.6117 5.36711 3.60712 -9.16371 1.91774 2.0942 1 1
381 1 18.7362 4.44597 4.4408 -4.68904 -4.35956 1.36072 1 1
382 1 18.7312 6.21951 6.29124 0.535167 3.84812 8.78961 1 1
383 1 20.5069 4.41995 6.2904 -3.23457 6.62878 -9.17321 1 1
384 1 20.59 6.27226 4.51726 -0.0259453 7.92892 6.55582 1 1
385 1 0.0351552 7.17377 3.62406 -2.02916 1.07763 -4.15486 1 1
386 1 0.0113825 8.91358 5.39364 7.60985 -1.4 -3.40994 1 1
387 1 1.82044 7.14568 5.38363 4.50457 5.65648 7.54384 1 1
388 1 1.82607 8.93483 3.60785 -2.62184 2.58583 -0.871338 1 1
389 1 0.944805 8.06077 4.49753 4.94955 -1.20882 4.1949 1 1
390 1 0.886196 9.79553 6.25376 3.77078 6.1059 -0.18017 1 1
391 1 2.71823 8.03087 6.29064 -3.9772 3.78134 0.500628 1 1
392 1 2.69924 9.7844 4.48528 12.7644 2.44027 1.22845 1 1
393 1 3.63601 7.1782 3.59858 1.53837 -2.31391 -5.37846 1 1
394 1 3.58192 8.92834 5.37086 6.10873 -6.49284 -3.27359 1 1
395 1 5.40815 7.13674 5.3815 7.25672 -3.59462 2.81347 1 1
396 1 5.38627 8.89725 3.54449 2.58673 0.813368 -0.114802 1 1
397 1 4.48854 8.03126 4.48795 3.14841 7.17407 8.02418 1 1
398 1 4.51591 9.806 6.28173 -4.36221 5.81321 1.60913 1 1
399 1 6.27634 8.01204 6.29177 0.0254675 -1.72702 4.30658 1 1
400 1 6.29094 9.84629 4.46299 -4.47583 5.71734 3.45591 1 1
401 1 7.14416 7.13158 3.55955 -5.10525 7.60389 0.250555 1 1
402 1 7.0999 8.92649 5.38665 2.19826 6.73183 2.89806 1 1
403 1 8.90266 7.125 5.34648 5.48372 2.05245 8.20275 1 1
404 1 8.91543 8.92714 3.61782 -0.110928 -1.12955 1.90471 1 1
405 1 8.00916 8.0223 4.48007 -4.49244 -2.66563 -2.42739 1 1
406 1 8.02491 9.8356 6.31836 -4.6057 -2.29812 5.04675 1 1
407 1 9.79524 7.9961 6.23742 0.512501 2.82073 -0.0263302 1 1
408 1 9.80439 9.79856 4.51983 -3.69885 -1.08226 2.10317 1 1
409 1 10.7216 7.14619 3.60618 5.03643 -2.95298 -0.115347 1 1
410 1 10.6849 8.9031 5.39365 -2.52761 5.98734 1.48543 1 1
411 1 12.4348 7.12208 5.40084 -0.647367 -1.5925 4.75969 1 1
412 1 12.4715 8.92732 3.59227 -0.383195 -4.98839 7.70294 1 1
413 1 11.6033 8.04025 4.48661 5.84437 1.96824 7.97876 1 1
414 1 11.5901 9.81287 6.26909 2.48039 1.03422 2.89009 1 1
415 1 13.349 8.03247 6.30447 -2.26664 6.09636 -1.44277 1 1
416 1 13.3737 9.82227 4.47895 6.936 9.6342 1.86322 1 1
417 1 14.2699 7.10686 3.60741 -1.68651 2.23405 -1.99933 1 1
418 1 14.2517 8.88792 5.43162 -1.15083 -1.20869 5.02559 1 1
419 1 16.0412 7.08248 5.3781 4.87178 -3.55785 -6.14125 1 1
420 1 16.0772 8.87965 3.6169 5.22697 -1.49802 -1.64314 1 1
421 1 15.1323 7.99309 4.49682 -3.76804 -1.3893 2.47471 1 1
422 1 15.1359 9.81179 6.30059 0.725913 -5.53118 2.98539 1 1
423 1 16.9392 7.98869 6.2516 -3.35344 -1.94147 -0.633605 1 1
424 1 16.9547 9.80441 4.46984 -8.08566 1.78587 -5.67931 1 1
425 1 17.8112 7.10349 3.60525 -9.18661 16.8042 8.95805 1 1
426 1 17.835 8.93085 5.33382 2.41209 -5.39392 2.15931 1 1
427 1 19.6552 7.11588 5.39673 -2.653 -12.8861 -1.36639 1 1
428 1 19.6223 8.88572 3.61286 6.63491 -3.44454 6.81162 1 1
429 1 18.7342 7.97562 4.48482 5.77371 1.56374 -4.16331 1 1
430 1 18.7037 9.78462 6.24326 1.34884 -2.06762 -2.25141 1 1
431 1 20.5095 8.02843 6.26522 4.75306 1.60377 -2.12378 1 1
432 1 20.4911 9.82772 4.47584 1.33102 -2.27628 1.46494 1 1
433 1 21.3857 10.686 3.57281 -2.45155 -4.66671 5.74375 1 1
434 1 21.3673 12.5032 5.35931 0.384648 2.60532 3.03001 1 1
435 1 1.80268 10.6666 5.32246 -5.5167 -5.59866 2.85208 1 1
436 1 1.76394 12.4442 3.57162 3.31341 -5.55209 -4.1097 1 1
437 1 0.884199 11.5602 4.4392 -0.581203 -0.178288 -3.63667 1 1
438 1 0.879677 13.3863 6.27393 1.7657 -4.42278 -0.666504 1 1
439 1 2.66603 11.5703 6.22928 1.20817 3.98709 5.80039 1 1
440 1 2.73801 13.3122 4.47528 -1.4684 5.79964 4.92575 1 1
441 1 3.5772 10.6982 3.60209 2.28264 -2.58233 -1.38016 1 1
442 1 3.60655 12.4375 5.37461 -7.23141 -1.98061 3.03653 1 1
443 1 5.39057 10.7122 5.33374 5.51205 4.03203 -2.39878 1 1
444 1 5.34829 12.4896 3.55895 1.25174 8.78268 2.05987 1 1
445 1 4.51909 11.5635 4.48223 2.83893 0.0153815 3.89077 1 1
446 1 4.49949 13.4129 6.2853 5.36518 -0.0624257 5.89904 1 1
447 1 6.23587 11.6234 6.22152 -9.37385 6.6869 -3.33482 1 1
448 1 6.23568 13.3725 4.47642 1.57711 6.77849 -1.06714 1 1
449 1 7.13658 10.7569 3.58532 5.57622 2.78109 -2.55152 1 1
450 1 7.14487 12.5012 5.38633 3.93839 -7.00248 1.24882 1 1
451 1 8.93056 10.6898 5.3974 1.83673 5.42884 7.7676 1 1
452 1 8.91812 12.4601 3.58091 0.817138 4.5676 7.83913 1 1
453 1 8.016 11.5788 4.47349 2.96677 2.34329 -0.606762 1 1
454 1 8.01261 13.3826 6.24577 1.60089 -1.03052 1.44001 1 1
455 1 9.81822 11.5812 6.30443 3.35857 -2.57457 -0.405144 1 1
456 1 9.83914 13.3529 4.49228 -3.99272 2.97247 4.01148 1 1
457 1 10.6902 10.6988 3.6265 -0.25441 -8.52937 0.560599 1 1
458 1 10.7173 12.4762 5.37464 4.20609 5.15088 3.18317 1 1
459 1 12.4452 10.714 5.38565 -2.20619 5.52086 -6.40627 1 1
460 1 12.4855 12.4697 3.57923 2.62239 11.5911 4.17099 1 1
461 1 11.599 11.6133 4.4651 -0.896883 -1.97573 -0.0439022 1 1
462 1 11.6168 13.3833 6.26946 3.91723 -3.64908 3.86781 1 1
463 1 13.3883 11.558 6.26957 5.37143 -8.28939 -2.42149 1 1
464 1 13.4231 13.3574 4.50586 0.195308 4.71745 -5.49904 1 1
465 1 14.3197 10.6911 3.57734 3.32187 7.04386 9.10233 1 1
466 1 14.31 12.4383 5.39965 -1.54963 -0.524984 -4.28667 1 1
467 1 16.051 10.7134 5.41032 -2.02014 2.26829 1.83772 1 1
468 1 16.0566 12.4814 3.55397 -7.6177 -7.09747 4.47451 1 1
469 1 15.203 11.5701 4.47973 -3.34078 0.34348 3.31116 1 1
470 1 15.2364 13.3611 6.28216 0.762459 2.43633 -1.42954 1 1
471 1 16.9507 11.5959 6.33286 -3.01023 5.25807 3.32911 1 1
472 1 16.9156 13.3926 4.4854 10.247 5.09857 -7.88568 1 1
473 1 17.8329 10.7248 3.61186 1.22515 2.32182 6.19764 1 1
474 1 17.8467 12.5176 5.39132 -6.90537 -2.1699 -1.34023 1 1
475 1 19.5793 10.7031 5.36428 1.11977 -9.20632 6.16464 1 1
476 1 19.6042 12.51 3.6323 5.79407 0.811185 6.46299 1 1
477 1 18.7089 11.6042 4.50505 5.03224 -6.16192 -3.23371 1 1
478 1 18.7356 13.3844 6.32949 -4.14421 4.9449 -3.63016 1 1
479 1 20.4795 11.5654 6.25949 3.45443 3.91924 1.52703 1 1
480 1 20.4923 13.3833 4.50304 10.7404 5.0209 1.34665 1 1
481 1 0.0161265 14.2734 3.60655 0.0441465 -0.72951 4.24138 1 1
482 1 21.3919 16.0605 5.45389 -2.3071 9.31258 1.51515 1 1
483 1 1.79702 14.2478 5.41522 -1.05868 4.96061 0.747771 1 1
484 1 1.79035 16.0975 3.56833 -5.48469 0.301582 1.64063 1 1
485 1 0.904102 15.1547 4.5232 6.70519 10.9752 -5.3828 1 1
486 1 0.904162 16.9608 6.31788 -1.68729 -5.0583 1.21555 1 1
487 1 2.73633 15.1474 6.31135 -3.6622 -3.06306 -1.56374 1 1
488 1 2.6745 16.9412 4.48763 10.2439 -0.557131 -0.313505 1 1
489 1 3.56743 14.3007 3.59217 2.69421 -1.15495 8.24925 1 1
490 1 3.60474 16.0551 5.35331 -1.93869 -1.13268 1.77414 1 1
491 1 5.36171 14.2971 5.35296 1.32284 1.25251 -4.32254 1 1
492 1 5.32679 16.0824 3.54803 0.750727 7.86444 9.94596 1 1
493 1 4.43392 15.1935 4.45484 1.72739 3.427 -2.43596 1 1
494 1 4.5084 16.9149 6.28914 7.64607 6.12217 3.48655 1 1
495 1 6.28128 15.182 6.26291 9.41032 7.38771 6.75581 1 1
496 1 6.27119 16.9685 4.43864 -3.59453 0.932342 -1.91972 1 1
497 1 7.13679 14.2657 3.52482 -4.20743 -2.26653 -2.24567 1 1
498 1 7.15519 16.0638 5.34865 1.47735 2.18585 -3.43942 1 1
499 1 8.89321 14.2276 5.34281 -7.29447 1.17644 -1.44281 1 1
500 1 8.92102 16.0542 3.52154 -0.63519 4.40606 -7.4509 1 1
501 1 8.05091 15.1794 4.45937 -3.31401 -0.147383 1.78079 1 1
502 1 8.01082 16.9208 6.25945 -3.12817 8.11746 1.48331 1 1
503 1 9.79286 15.1136 6.2499 5.04142 -1.35911 -2.40817 1 1
504 1 9.76347 16.915 4.47458 -0.993808 -8.75928 0.561266 1 1
505 1 10.7049 14.2332 3.57717 -9.02911 -4.80361 5.5265 1 1
506 1 10.6319 16.0368 5.32782 -4.85491 -1.13083 -1.31026 1 1
507 1 12.5011 14.2549 5.37474 3.8845 1.09649 -2.49512 1 1
508 1 12.4981 16.0582 3.55854 -3.96665 2.89451 6.96709 1 1
509 1 11.6158 15.1498 4.46604 6.08298 2.20898 -3.39242 1 1
510 1 11.5456 16.934 6.23515 -0.176762 -1.41401 -8.36426 1 1
511 1 13.3781 15.128 6.28887 7.28758 2.60011 0.50289 1 1
512 1 13.3756 16.9659 4.49386 -3.64909 4.17423 2.2551 1 1
513 1 14.262 14.2299 3.50979 2.71491 -1.08256 9.37191 1 1
514 1 14.3096 16.0631 5.37873 9.86535 1.12105 -0.389893 1 1
515 1 16.0307 14.3017 5.40441 3.56788 2.69182 -2.77703 1 1
516 1 16.058 16.0898 3.53374 6.70024 -0.68445 2.28374 1 1
517 1 15.2063 15.1459 4.43891 0.169002 1.70297 -2.96015 1 1
518 1 15.1683 16.9318 6.27274 -2.57358 6.33524 -1.77293 1 1
519 1 16.9077 15.2049 6.31763 6.21043 6.55657 -1.87818 1 1
520 1 16.9381 16.9835 4.50641 -6.37847 -0.330772 -2.14684 1 1
521 1 17.7968 14.325 3.62214 -2.67948 3.86084 1.33987 1 1
522 1 17.8017 16.0296 5.41142 -0.127698 3.63668 -0.958851 1 1
523 1 19.5904 14.2357 5.39514 -1.24674 0.0547023 -6.17428 1 1
524 1 19.6868 16.0694 3.60351 -5.95052 -1.45945 2.5428 1 1
525 1 18.7272 15.154 4.52717 1.43516 2.65617 2.61045 1 1
526 1 18.7008 16.9289 6.28098 -0.788792 -2.37321 2.77612 1 1
527 1 20.4775 15.1336 6.31624 0.957105 -9.44841 -9.1492 1 1
528 1 20.5578 16.9884 4.51436 3.2381 -6.3912 4.9376 1 1
529 1 0.030726 17.8355 3.57548 -3.96807 1.85444 -1.58228 1 1
530 1 0.0502826 19.648 5.34242 1.81025 0.441175 7.75662 1 1
531 1 1.77782 17.7987 5.38305 -3.88475 -0.792248 -3.85921 1 1
532 1 1.807 19.6589 3.59681 -2.89093 1.74119 -0.189157 1 1
533 1 0.908086 18.7453 4.45219 8.27742 -3.18285 5.59224 1 1
534 1 0.91019 20.5172 6.31912 14.8566 0.190323 -2.238 1 1
535 1 2.66734 18.6934 6.26109 -1.90956 -1.86303 -8.76435 1 1
536 1 2.67176 20.5498 4.50668 -5.22777 -7.9112 -0.461629 1 1
537 1 3.55655 17.8409 3.55662 5.64874 -1.20444 -2.40451 1 1
538 1 3.54756 19.6393 5.39419 3.42898 -7.56198 -1.95193 1 1
539 1 5.37789 17.8505 5.36337 -2.36979 11.4063 2.14633 1 1
540 1 5.32942 19.6378 3.55583 -0.792769 5.93815 -1.50801 1 1
541 1 4.44069 18.7593 4.44955 2.03918 4.6738 -3.48544 1 1
542 1 4.4365 20.4947 6.31044 3.68203 2.0715 -4.49757 1 1
543 1 6.20814 18.7237 6.28652 -4.80198 3.64846 -0.257506 1 1
544 1 6.23936 20.4889 4.45306 -8.2493 -4.90874 -4.44692 1 1
545 1 7.17423 17.8097 3.57463 -4.16998 2.27893 2.14108 1 1
546 1 7.06976 19.6328 5.34188 -4.23901 -6.12191 5.20059 1 1
547 1 8.90159 17.8262 5.3826 -2.59329 -2.42456 -0.728151 1 1
548 1 8.8665 19.6365 3.63054 -3.13879 -4.04644 -3.82164 1 1
549 1 7.98874 18.7216 4.51783 -0.732097 1.27736 -3.6028 1 1
550 1 7.94453 20.4801 6.29847 -3.81675 1.21368 -5.93286 1 1
551 1 9.77751 18.7627 6.2569 1.69617 -4.13227 -6.33375 1 1
552 1 9.77618 20.5063 4.508 -5.25914 -2.46763 -1.85979 1 1
553 1 10.7066 17.8392 3.54848 -0.589093 -1.73624 -5.28415 1 1
554 1 10.6896 19.6168 5.35734 2.81116 4.00046 4.9819 1 1
555 1 12.478 17.8449 5.39483 -1.88507 -2.38145 -4.0163 1 1
556 1 12.4815 19.5743 3.59214 -11.1258 1.21053 -5.71932 1 1
557 1 11.5681 18.7304 4.46115 3.78485 -3.10172 -2.13127 1 1