ITEM: TIMESTEP
2200
ITEM: NUMBER OF ATOMS
2952
ITEM: BOX BOUNDS pp pp mm
0.0000000000000000e+00 2.1394294200000001e+01
0.0000000000000000e+00 2.1394294200000001e+01
-4.4571446250000002e-01 5.3485735500000004e+01
ITEM: ATOMS id type x y z vx vy vz v_is_diamond c_structure_type
1 1 0 0 0 0 0 0 1 3
2 1 1.78286 1.78286 0 0 0 0 1 3
3 1 0.891429 0.891429 0.891429 0 0 0 1 2
4 1 0.87019 2.67225 2.69476 0.901807 3.57035 -5.75327 1 1
5 1 2.67377 0.8929 2.67798 -4.98413 0.631419 -2.54839 1 1
6 1 2.67429 2.67429 0.891429 0 0 0 1 2
7 1 -0.00729828 1.81269 1.81945 -3.45525 3.82837 -7.38997 1 1
8 1 1.77428 -0.011111 1.7735 0.185042 -8.7747 -1.16664 1 1
9 1 1.78937 3.58469 1.78577 1.41388 1.95661 -1.32408 1 1
10 1 3.56851 1.79177 1.79335 -0.501951 -0.33958 -4.59472 1 1
11 1 3.56572 0 0 0 0 0 1 3
12 1 5.34857 1.78286 0 0 0 0 1 3
13 1 4.45714 0.891429 0.891429 0 0 0 1 2
14 1 4.4442 2.71598 2.68692 -1.05885 -0.294093 -4.11033 1 1
15 1 6.21309 0.90786 2.67671 3.77466 -3.45194 0.424785 1 1
16 1 6.24 2.67429 0.891429 0 0 0 1 2
17 1 7.09863 1.82125 1.78499 -4.70987 -1.70443 0.37558 1 1
18 1 7.13143 0 0 0 0 0 1 3
19 1 8.02286 0.891429 0.891429 0 0 0 1 2
20 1 8.00075 2.69821 2.71376 1.79889 -0.0242983 -2.08784 1 1
21 1 8.91429 1.78286 0 0 0 0 1 3
22 1 9.80527 0.873608 2.73003 -3.39707 3.25814 -2.42379 1 1
23 1 9.80572 2.67429 0.891429 0 0 0 1 2
24 1 8.89387 0.0187292 1.8454 -1.26004 -2.75765 -8.17638 1 1
25 1 10.6932 1.76799 1.8035 0.577156 -4.769 7.29621 1 1
26 1 10.6971 0 0 0 0 0 1 3
27 1 12.48 1.78286 0 0 0 0 1 3
28 1 11.5886 0.891429 0.891429 0 0 0 1 2
29 1 11.5535 2.65071 2.69296 -6.32023 -6.83514 4.92096 1 1
30 1 13.3672 0.850365 2.68209 -3.91506 3.03922 0.547671 1 1
31 1 13.3714 2.67429 0.891429 0 0 0 1 2
32 1 14.2486 1.80598 1.83194 -0.740442 6.85302 -6.91583 1 1
33 1 14.2629 0 0 0 0 0 1 3
34 1 16.0457 1.78286 0 0 0 0 1 3
35 1 15.1543 0.891429 0.891429 0 0 0 1 2
36 1 15.1268 2.69175 2.67669 2.9167 2.59391 0.499415 1 1
37 1 16.933 0.912732 2.67034 -1.07503 2.59409 0.158604 1 1
38 1 16.9371 2.67429 0.891429 0 0 0 1 2
39 1 16.0319 0.0193179 1.76903 -4.64532 -3.38056 -0.966975 1 1
40 1 17.7711 1.7855 1.75744 -6.68513 -12.1233 -3.3824 1 1
41 1 17.8286 0 0 0 0 0 1 3
42 1 19.6114 1.78286 0 0 0 0 1 3
43 1 18.72 0.891429 0.891429 0 0 0 1 2
44 1 18.6635 2.66468 2.69014 -9.98903 -6.10603 -1.81292 1 1
45 1 20.4974 0.869044 2.67101 2.05182 -1.62332 -5.79649 1 1
46 1 20.5029 2.67429 0.891429 0 0 0 1 2
47 1 0 3.56572 0 0 0 0 1 3
48 1 1.78286 5.34857 0 0 0 0 1 3
49 1 0.891429 4.45714 0.891429 0 0 0 1 2
50 1 0.874 6.29427 2.60465 -1.9278 6.73152 6.51741 1 1
51 1 2.67754 4.4621 2.69497 3.05573 -8.42061 7.24509 1 1
52 1 2.67429 6.24 0.891429 0 0 0 1 2
53 1 3.56147 5.35206 1.79434 10.5538 4.44935 -8.93616 1 1
54 1 5.34458 3.60894 1.81834 -0.294885 -7.22014 -3.57904 1 1
55 1 3.56572 3.56572 0 0 0 0 1 3
56 1 5.34857 5.34857 0 0 0 0 1 3
57 1 4.45714 4.45714 0.891429 0 0 0 1 2
58 1 4.46894 6.24543 2.65384 5.176 3.90501 4.95836 1 1
59 1 6.23694 4.4902 2.71777 -7.4899 0.732811 4.11202 1 1
60 1 6.24 6.24 0.891429 0 0 0 1 2
61 1 5.40968 7.14349 1.77477 3.68657 1.58486 -9.82339 1 1
62 1 7.14205 5.34132 1.78751 -0.141654 0.31401 -0.297804 1 1
63 1 7.13143 3.56572 0 0 0 0 1 3
64 1 8.9411 3.57917 1.83936 -3.55901 -7.90815 -1.97952 1 1
65 1 8.02286 4.45714 0.891429 0 0 0 1 2
66 1 8.02997 6.26761 2.69185 0.303987 -8.36417 -1.18525 1 1
67 1 8.91429 5.34857 0 0 0 0 1 3
68 1 9.81792 4.43523 2.68555 2.37294 -2.51331 -9.19105 1 1
69 1 9.80572 6.24 0.891429 0 0 0 1 2
70 1 10.7065 5.31231 1.76938 9.67033 -5.95277 4.30285 1 1
71 1 12.4686 3.56062 1.79746 -0.73287 -8.0307 -6.96095 1 1
72 1 10.6971 3.56572 0 0 0 0 1 3
73 1 12.48 5.34857 0 0 0 0 1 3
74 1 11.5886 4.45714 0.891429 0 0 0 1 2
75 1 11.5783 6.185 2.71761 -0.470521 -8.87836 -3.24942 1 1
76 1 13.372 4.47327 2.67799 -3.6396 5.47727 4.6084 1 1
77 1 13.3714 6.24 0.891429 0 0 0 1 2
78 1 14.2369 5.33584 1.78467 3.51154 -0.535455 2.86441 1 1
79 1 16.0254 3.57233 1.79631 -9.08998 1.63237 5.06501 1 1
80 1 14.2629 3.56572 0 0 0 0 1 3
81 1 16.0457 5.34857 0 0 0 0 1 3
82 1 15.1543 4.45714 0.891429 0 0 0 1 2
83 1 15.1338 6.24269 2.64272 -3.99117 -2.14196 -2.44762 1 1
84 1 16.9484 4.42601 2.70007 -10.2945 -1.68587 4.89643 1 1
85 1 16.9371 6.24 0.891429 0 0 0 1 2
86 1 17.7891 5.34658 1.77401 -0.919898 4.53567 4.24744 1 1
87 1 19.5909 3.55003 1.74918 -1.89266 1.83399 0.671956 1 1
88 1 0.0134511 5.40044 1.75998 -4.77059 8.89706 3.20552 1 1
89 1 17.8286 3.56572 0 0 0 0 1 3
90 1 19.6114 5.34857 0 0 0 0 1 3
91 1 18.72 4.45714 0.891429 0 0 0 1 2
92 1 18.7196 6.20654 2.67064 -4.34585 -1.30392 -3.9218 1 1
93 1 20.4402 4.49423 2.60691 3.89517 -1.77008 0.597506 1 1
94 1 20.5029 6.24 0.891429 0 0 0 1 2
95 1 19.6248 7.10917 1.78038 -1.18881 -3.10999 -0.916127 1 1
96 1 1.79742 7.16204 1.77865 -2.69864 11.9625 -1.16555 1 1
97 1 0 7.13143 0 0 0 0 1 3
98 1 0.891429 8.02286 0.891429 0 0 0 1 2
99 1 2.70484 8.04016 2.64166 3.78344 6.54619 -0.23237 1 1
100 1 1.78286 8.91429 0 0 0 0 1 3
101 1 0.883309 9.804 2.6209 2.86395 -3.14633 2.27504 1 1
102 1 2.67429 9.80572 0.891429 0 0 0 1 2
103 1 1.80352 10.6861 1.76632 -3.10397 1.84652 3.16336 1 1
104 1 3.56976 8.89666 1.74998 -1.85254 6.47357 0.717687 1 1
105 1 3.56572 7.13143 0 0 0 0 1 3
106 1 4.45714 8.02286 0.891429 0 0 0 1 2
107 1 6.28808 8.03443 2.73465 -6.26457 -4.44904 -0.952326 1 1
108 1 5.34857 8.91429 0 0 0 0 1 3
109 1 4.46143 9.82745 2.64811 -5.30895 -2.9382 0.728894 1 1
110 1 6.24 9.80572 0.891429 0 0 0 1 2
111 1 7.15417 8.88452 1.76975 11.7874 -1.53811 -4.45746 1 1
112 1 8.93198 7.13696 1.77615 -2.52427 -0.975381 -4.65741 1 1
113 1 7.13143 7.13143 0 0 0 0 1 3
114 1 8.02286 8.02286 0.891429 0 0 0 1 2
115 1 9.82927 8.00899 2.67604 4.83405 -1.35804 -6.21552 1 1
116 1 8.02885 9.7851 2.64255 0.166715 3.06076 2.0169 1 1
117 1 8.91429 8.91429 0 0 0 0 1 3
118 1 9.80572 9.80572 0.891429 0 0 0 1 2
119 1 10.7239 8.93871 1.75786 -4.35277 3.80898 3.43466 1 1
120 1 12.4733 7.15614 1.76845 -0.279371 -2.9885 7.30067 1 1
121 1 10.6971 7.13143 0 0 0 0 1 3
122 1 11.5886 8.02286 0.891429 0 0 0 1 2
123 1 13.3521 8.07466 2.63092 12.8127 5.9385 1.34243 1 1
124 1 12.48 8.91429 0 0 0 0 1 3
125 1 11.6254 9.8085 2.66169 -5.23245 3.41308 -1.65922 1 1
126 1 13.3714 9.80572 0.891429 0 0 0 1 2
127 1 12.5115 10.6984 1.76616 -2.66203 -2.25938 0.560187 1 1
128 1 16.0602 7.15333 1.76557 -5.63146 -3.63055 -7.05208 1 1
129 1 14.2852 8.95118 1.79556 -3.50341 -9.62124 -3.59471 1 1
130 1 14.2629 7.13143 0 0 0 0 1 3
131 1 15.1543 8.02286 0.891429 0 0 0 1 2
132 1 16.9278 8.10062 2.64019 7.28754 0.684548 -4.24328 1 1
133 1 16.0457 8.91429 0 0 0 0 1 3
134 1 15.1798 9.81919 2.65063 1.17075 -6.90841 -4.97637 1 1
135 1 16.9371 9.80572 0.891429 0 0 0 1 2
136 1 16.051 10.6995 1.75259 9.19334 -3.48442 -1.90292 1 1
137 1 17.8271 8.93482 1.75737 -1.38679 1.17598 8.1035 1 1
138 1 21.401 8.92334 1.72155 6.20838 -4.65065 3.05584 1 1
139 1 17.8286 7.13143 0 0 0 0 1 3
140 1 18.72 8.02286 0.891429 0 0 0 1 2
141 1 20.545 8.01231 2.63726 0.546134 8.15202 -8.59183 1 1
142 1 19.6114 8.91429 0 0 0 0 1 3
143 1 18.6918 9.80695 2.65886 -2.31498 1.4358 -0.659815 1 1
144 1 20.5029 9.80572 0.891429 0 0 0 1 2
145 1 0 10.6971 0 0 0 0 1 3
146 1 1.78286 12.48 0 0 0 0 1 3
147 1 0.891429 11.5886 0.891429 0 0 0 1 2
148 1 2.70566 11.6037 2.63082 -4.26431 -2.71688 6.01539 1 1
149 1 0.902907 13.3581 2.64587 0.624946 -1.75571 2.14299 1 1
150 1 2.67429 13.3714 0.891429 0 0 0 1 2
151 1 0.0347436 12.4707 1.73322 -7.10954 0.419468 -2.41846 1 1
152 1 5.36013 10.6844 1.77183 1.81988 10.6573 -1.9078 1 1
153 1 3.61324 12.4911 1.77832 -1.8723 -0.925007 3.75567 1 1
154 1 3.56572 10.6971 0 0 0 0 1 3
155 1 5.34857 12.48 0 0 0 0 1 3
156 1 4.45714 11.5886 0.891429 0 0 0 1 2
157 1 6.20736 11.5804 2.64317 -3.44629 2.61301 -3.36616 1 1
158 1 4.49831 13.405 2.64305 4.84836 -2.20027 -4.89324 1 1
159 1 6.24 13.3714 0.891429 0 0 0 1 2
160 1 5.34063 14.2729 1.80038 0.634071 7.34785 -0.758041 1 1
161 1 8.90649 10.6864 1.78067 9.33172 -4.75289 -1.06776 1 1
162 1 7.11301 12.4794 1.80506 7.70933 1.14759 -3.35597 1 1
163 1 7.13143 10.6971 0 0 0 0 1 3
164 1 8.02286 11.5886 0.891429 0 0 0 1 2
165 1 8.91429 12.48 0 0 0 0 1 3
166 1 9.82444 11.5905 2.64964 4.43365 0.731546 -9.64693 1 1
167 1 8.01753 13.426 2.65415 0.695326 3.43426 -2.12472 1 1
168 1 9.80572 13.3714 0.891429 0 0 0 1 2
169 1 10.7621 12.4579 1.80162 -5.7229 -1.99193 -4.42701 1 1
170 1 10.6971 10.6971 0 0 0 0 1 3
171 1 12.48 12.48 0 0 0 0 1 3
172 1 11.5886 11.5886 0.891429 0 0 0 1 2
173 1 13.4223 11.5953 2.68053 1.69953 4.25921 -2.31078 1 1
174 1 11.6463 13.3532 2.7087 9.77561 -5.83005 2.30076 1 1
175 1 13.3714 13.3714 0.891429 0 0 0 1 2
176 1 12.5141 14.2383 1.82783 -3.26131 3.92323 4.40853 1 1
177 1 14.251 12.4845 1.75544 0.447849 -0.28315 0.594241 1 1
178 1 14.2629 10.6971 0 0 0 0 1 3
179 1 16.0457 12.48 0 0 0 0 1 3
180 1 15.1543 11.5886 0.891429 0 0 0 1 2
181 1 16.9155 11.564 2.65448 -0.998427 -2.9038 -2.01825 1 1
182 1 15.1833 13.3621 2.63976 -5.30942 3.12355 0.915156 1 1
183 1 16.9371 13.3714 0.891429 0 0 0 1 2
184 1 17.79 12.4904 1.80962 0.577038 -4.55298 -3.33174 1 1
185 1 19.5828 10.6648 1.74353 4.58855 -0.561409 -0.827475 1 1
186 1 17.8286 10.6971 0 0 0 0 1 3
187 1 19.6114 12.48 0 0 0 0 1 3
188 1 18.72 11.5886 0.891429 0 0 0 1 2
189 1 20.5033 11.5747 2.63526 1.76204 -7.43795 10.6808 1 1
190 1 18.7331 13.3456 2.66923 5.47084 0.138774 6.80744 1 1
191 1 20.5029 13.3714 0.891429 0 0 0 1 2
192 1 19.6166 14.2381 1.75409 -6.6307 -8.42145 3.10327 1 1
193 1 1.7896 14.2565 1.79497 4.30767 -4.19259 -5.65911 1 1
194 1 0 14.2629 0 0 0 0 1 3
195 1 1.78286 16.0457 0 0 0 0 1 3
196 1 0.891429 15.1543 0.891429 0 0 0 1 2
197 1 0.854528 16.9283 2.71391 9.02392 3.37332 -3.27916 1 1
198 1 2.66783 15.1125 2.71753 0.308831 1.5728 4.73265 1 1
199 1 2.67429 16.9371 0.891429 0 0 0 1 2
200 1 21.3613 16.0081 1.75441 -0.94467 5.93166 -1.10531 1 1
201 1 3.55737 16.0701 1.79687 3.58656 4.69165 5.68326 1 1
202 1 3.56572 14.2629 0 0 0 0 1 3
203 1 5.34857 16.0457 0 0 0 0 1 3
204 1 4.45714 15.1543 0.891429 0 0 0 1 2
205 1 4.43561 16.9378 2.73908 5.98313 4.8441 -4.25851 1 1
206 1 6.24288 15.186 2.69634 -4.06508 2.32097 0.358637 1 1
207 1 6.24 16.9371 0.891429 0 0 0 1 2
208 1 7.16152 16.0422 1.7555 -5.05879 1.87228 2.17638 1 1
209 1 5.34915 17.8243 1.83003 7.44599 3.78781 -7.80315 1 1
210 1 8.89343 14.2859 1.79191 -0.180138 2.19617 3.44032 1 1
211 1 7.13143 14.2629 0 0 0 0 1 3
212 1 8.02286 15.1543 0.891429 0 0 0 1 2
213 1 7.9827 16.9055 2.71238 -0.680182 1.95772 3.99557 1 1
214 1 8.91429 16.0457 0 0 0 0 1 3
215 1 9.80026 15.1521 2.70144 -2.68769 4.39139 1.07715 1 1
216 1 9.80572 16.9371 0.891429 0 0 0 1 2
217 1 8.91845 17.857 1.79896 -1.58128 4.6293 2.77336 1 1
218 1 10.6726 15.9857 1.7591 4.65367 -4.56558 1.3704 1 1
219 1 10.6971 14.2629 0 0 0 0 1 3
220 1 12.48 16.0457 0 0 0 0 1 3
221 1 11.5886 15.1543 0.891429 0 0 0 1 2
222 1 11.5793 16.9005 2.63654 -3.93728 6.76972 0.720148 1 1
223 1 13.3732 15.1576 2.70747 -6.40625 0.0356192 -3.74283 1 1
224 1 13.3714 16.9371 0.891429 0 0 0 1 2
225 1 12.4808 17.8169 1.77181 -5.67992 3.32616 5.00381 1 1
226 1 16.0455 14.284 1.77327 3.42414 9.51914 -2.71981 1 1
227 1 14.2605 16.026 1.78302 -0.128242 4.83879 -4.5128 1 1
228 1 14.2629 14.2629 0 0 0 0 1 3
229 1 16.0457 16.0457 0 0 0 0 1 3
230 1 15.1543 15.1543 0.891429 0 0 0 1 2
231 1 15.207 16.8905 2.66558 -4.96108 3.59139 0.49234 1 1
232 1 16.9828 15.1138 2.6434 -1.04313 -7.18727 -5.74856 1 1
233 1 16.9371 16.9371 0.891429 0 0 0 1 2
234 1 17.8558 16.0225 1.76629 -3.11593 4.08652 3.73467 1 1
235 1 17.8286 14.2629 0 0 0 0 1 3
236 1 19.6114 16.0457 0 0 0 0 1 3
237 1 18.72 15.1543 0.891429 0 0 0 1 2
238 1 18.7384 16.9182 2.69913 -2.42637 -2.56912 -5.77784 1 1
239 1 20.4841 15.1516 2.68229 2.62343 -5.292 0.790546 1 1
240 1 20.5029 16.9371 0.891429 0 0 0 1 2
241 1 19.6694 17.8417 1.81487 -2.06842 -4.7755 0.220166 1 1
242 1 1.80804 17.8267 1.76364 -0.477045 -4.95681 2.87356 1 1
243 1 0 17.8286 0 0 0 0 1 3
244 1 1.78286 19.6114 0 0 0 0 1 3
245 1 0.891429 18.72 0.891429 0 0 0 1 2
246 1 0.885376 20.5113 2.69616 2.71821 -4.38183 -1.36075 1 1
247 1 2.64332 18.7228 2.71818 7.30374 -2.93788 -5.37901 1 1
248 1 2.67429 20.5029 0.891429 0 0 0 1 2
249 1 3.57755 19.6384 1.78498 -4.30175 -1.53951 0.195493 1 1
250 1 -0.0132921 19.6371 1.78321 -7.74385 5.87808 -2.49242 1 1
251 1 5.34898 0.0558324 1.78482 -3.00524 9.3395 3.11224 1 1
252 1 3.56572 17.8286 0 0 0 0 1 3
253 1 5.34857 19.6114 0 0 0 0 1 3
254 1 4.45714 18.72 0.891429 0 0 0 1 2
255 1 4.4401 20.5358 2.69064 10.7787 -4.07223 -1.29026 1 1
256 1 6.20501 18.7298 2.74406 1.08 6.65432 -1.47848 1 1
257 1 6.24 20.5029 0.891429 0 0 0 1 2
258 1 7.11237 19.6036 1.80655 -2.81476 -2.29903 -2.28688 1 1
259 1 7.13143 17.8286 0 0 0 0 1 3
260 1 8.02286 18.72 0.891429 0 0 0 1 2
261 1 7.99692 20.4759 2.71259 0.696127 -6.05605 0.606505 1 1
262 1 8.91429 19.6114 0 0 0 0 1 3
263 1 9.79491 18.7116 2.69838 -1.7498 1.49609 1.31746 1 1
264 1 9.80572 20.5029 0.891429 0 0 0 1 2
265 1 10.669 19.5897 1.76964 -4.09094 6.71645 3.61394 1 1
266 1 12.4923 21.3883 1.76429 0.84454 -0.88567 4.69211 1 1
267 1 10.6971 17.8286 0 0 0 0 1 3
268 1 12.48 19.6114 0 0 0 0 1 3
269 1 11.5886 18.72 0.891429 0 0 0 1 2
270 1 11.5939 20.485 2.70953 8.22567 3.49097 -9.30124 1 1
271 1 13.4069 18.6705 2.65059 10.6039 0.0997235 -1.57256 1 1
272 1 13.3714 20.5029 0.891429 0 0 0 1 2
273 1 14.2296 19.6298 1.7572 10.2614 1.47899 -4.76066 1 1
274 1 16.051 17.8496 1.75648 2.55827 1.30067 -1.10601 1 1
275 1 14.2629 17.8286 0 0 0 0 1 3
276 1 16.0457 19.6114 0 0 0 0 1 3
277 1 15.1543 18.72 0.891429 0 0 0 1 2
278 1 15.145 20.5101 2.65055 -5.34495 12.641 1.51696 1 1
279 1 16.9478 18.7544 2.68827 7.67034 2.68126 -5.7914 1 1
280 1 16.9371 20.5029 0.891429 0 0 0 1 2
281 1 19.5924 0.0239922 1.76698 4.6123 2.30254 2.09738 1 1
282 1 17.8357 19.5883 1.78431 -0.603701 -8.04951 -1.23428 1 1
283 1 17.8286 17.8286 0 0 0 0 1 3
284 1 19.6114 19.6114 0 0 0 0 1 3
285 1 18.72 18.72 0.891429 0 0 0 1 2
286 1 18.7316 20.4834 2.67393 -6.15187 -3.70081 -0.306904 1 1
287 1 20.5338 18.7426 2.69031 -0.539731 -2.082 5.7932 1 1
288 1 20.5029 20.5029 0.891429 0 0 0 1 2
289 1 1.7507 1.82141 3.58886 4.02923 -4.13843 2.70429 1 1
290 1 0.902245 0.900468 4.4464 3.40886 -4.29878 -2.6741 1 1
291 1 2.64631 2.70379 4.48104 5.86045 -8.97677 8.81035 1 1
292 1 1.77962 0.0496281 5.35839 6.79826 11.9575 -7.8496 1 1
293 1 1.73697 3.60656 5.37964 1.68902 -0.400596 -0.759849 1 1
294 1 21.372 1.78988 5.38886 2.34315 -1.43034 4.23813 1 1
295 1 21.3679 21.3929 3.56906 -0.658552 3.33193 -4.37181 1 1
296 1 3.59482 1.82408 5.34818 -2.85302 4.39595 7.31506 1 1
297 1 5.34609 1.81337 3.5907 2.62487 4.82652 3.96442 1 1
298 1 4.44875 0.916015 4.50641 0.196534 -3.22266 -5.66049 1 1
299 1 6.15962 0.84991 6.28632 -9.06299 1.4047 7.66414 1 1
300 1 6.20893 2.65049 4.50664 -2.34109 -2.60828 1.35243 1 1
301 1 3.55167 0.000701455 3.62948 8.7489 -6.29429 2.73586 1 1
302 1 7.10205 21.3472 3.63654 5.73936 -6.95295 5.65803 1 1
303 1 5.25674 21.3598 5.41406 -0.439435 -6.26211 2.49645 1 1
304 1 7.15898 3.58819 3.64959 -2.42626 2.57949 0.544639 1 1
305 1 7.09578 1.77209 5.43043 2.67629 -2.39128 -2.74157 1 1
306 1 8.89381 1.77584 3.61924 1.39266 -3.3918 5.75029 1 1
307 1 7.97069 0.88129 4.53801 -0.277413 1.63482 -0.906281 1 1
308 1 7.98235 2.67077 6.27788 -5.91812 -0.21411 -0.683767 1 1
309 1 9.84391 0.876138 6.23583 -5.66659 7.36992 3.17609 1 1
310 1 9.82263 2.66911 4.53487 -5.8497 -0.884772 7.57192 1 1
311 1 10.7097 1.77584 5.37895 -2.86036 1.44011 0.184655 1 1
312 1 12.4796 1.7879 3.62166 1.04778 4.33733 2.95028 1 1
313 1 11.5617 0.883229 4.49208 0.908846 4.95677 0.658 1 1
314 1 11.6364 2.69133 6.25578 3.79345 0.532786 -0.357965 1 1
315 1 13.3821 2.71604 4.461 1.39815 -4.16551 8.11933 1 1
316 1 13.3446 0.913808 6.27018 6.51812 -6.95115 -6.54772 1 1
317 1 12.5117 3.57606 5.37892 -2.99302 5.83773 -3.85001 1 1
318 1 14.2666 1.78962 5.34843 -4.14816 0.58192 2.02393 1 1
319 1 12.5029 21.3823 5.36382 3.31646 2.90463 3.45774 1 1
320 1 14.2604 3.57403 3.56997 0.981955 1.80852 2.31865 1 1
321 1 16.0742 1.79595 3.61012 3.44031 1.9654 -0.472949 1 1
322 1 15.1814 0.94443 4.5028 -8.20875 -1.83848 -2.86773 1 1
323 1 15.1463 2.68465 6.28969 3.96231 8.55466 -2.60965 1 1
324 1 16.9031 2.73311 4.48762 6.56229 -4.80782 -0.779573 1 1
325 1 17.786 1.81086 5.37548 -1.48994 2.65609 -3.04669 1 1
326 1 16.0549 0.0146397 5.38675 -3.59909 -4.88396 3.97232 1 1
327 1 19.6108 1.78085 3.55725 0.710842 0.923672 -4.39354 1 1
328 1 18.7243 0.911118 4.49 3.27107 -6.17014 -7.37971 1 1
329 1 20.498 2.71213 4.48255 3.54696 3.55139 1.04166 1 1
330 1 17.8249 0.0173642 3.58255 3.64225 -11.1014 -1.89079 1 1
331 1 19.5916 0.00348948 5.36388 -8.1063 -1.65909 -1.50681 1 1
332 1 21.3044 3.57028 3.53579 -2.59047 5.85361 2.53781 1 1
333 1 1.74183 5.38655 3.54626 4.60397 -0.935468 3.40004 1 1
334 1 0.853472 4.48162 4.47339 -5.31898 3.54725 3.63936 1 1
335 1 2.61592 4.46285 6.27309 2.14488 5.58051 -9.8875 1 1
336 1 2.63565 6.26488 4.43008 -4.57465 -2.22881 -1.49199 1 1
337 1 3.57801 3.56581 3.56847 7.58511 -6.96443 1.28011 1 1
338 1 21.3825 5.33312 5.35171 1.44361 -2.68663 3.40735 1 1
339 1 3.53384 5.37558 5.40198 -5.8883 -0.710319 5.09791 1 1
340 1 5.3469 3.55796 5.37475 -3.75266 0.161062 -2.33842 1 1
341 1 5.31155 5.33945 3.63316 -6.03948 -3.59548 -7.40116 1 1
342 1 4.46467 4.44209 4.48772 7.69763 0.171611 -6.65161 1 1
343 1 4.45236 6.24088 6.28368 2.72261 -1.01914 0.10021 1 1
344 1 6.21225 6.21935 4.50521 -5.05969 -0.00805889 -5.81469 1 1
345 1 7.11879 5.34165 5.38806 -3.63521 -2.61149 -0.0130893 1 1
346 1 5.37579 7.10585 5.38918 -3.41249 1.35369 -0.628092 1 1
347 1 6.25314 4.43746 6.28188 -5.35961 0.992667 0.883412 1 1
348 1 8.94684 3.53987 5.39274 5.83419 0.352401 3.96294 1 1
349 1 10.7124 3.54566 3.60956 -0.076491 -2.64039 1.15672 1 1
350 1 8.89831 5.34223 3.59718 1.62084 0.199436 -0.707055 1 1
351 1 8.02588 4.45479 4.50342 -0.231705 1.25921 -0.626281 1 1
352 1 7.97092 6.24665 6.28977 5.66254 -0.55341 8.16372 1 1
353 1 9.84409 4.50172 6.254 3.94892 -2.64222 2.4742 1 1
354 1 9.8108 6.19261 4.47003 1.12696 -3.17658 -2.24416 1 1
355 1 10.7881 5.31759 5.3636 1.17311 -4.83285 7.63878 1 1
356 1 12.4762 5.29282 3.58461 11.0218 -0.493902 -0.544748 1 1
357 1 11.6181 4.41764 4.49181 -7.71912 2.02452 1.86739 1 1
358 1 13.3319 6.23419 4.44037 -2.08676 -0.400123 -7.31213 1 1
359 1 14.2976 5.41508 5.36407 1.41412 -2.71893 7.33766 1 1
360 1 16.0478 3.55718 5.38055 12.9466 -6.27288 2.80868 1 1
361 1 17.8208 3.59032 3.56979 8.26646 -1.29335 -3.75155 1 1
362 1 16.0698 5.35688 3.56905 -6.8121 -7.16145 -0.944025 1 1
363 1 15.1359 4.48983 4.48255 1.42874 -1.55393 0.0177842 1 1
364 1 16.9748 6.29651 4.44631 -7.32908 3.91443 0.116919 1 1
365 1 16.9035 4.47932 6.27677 5.43697 -0.260877 2.22775 1 1
366 1 16.0703 7.14808 5.32524 0.45682 -7.02116 -2.407 1 1
367 1 15.1891 6.24839 6.24166 -2.87059 0.231619 -1.00488 1 1
368 1 19.5469 3.58897 5.35393 -2.7444 2.1341 8.83999 1 1
369 1 17.8257 5.36668 5.35146 6.71431 5.04223 -8.18592 1 1
370 1 19.6252 5.36785 3.57092 -2.25263 4.25432 -8.32284 1 1
371 1 18.6918 4.46148 4.48254 -0.289217 0.0896573 -3.23108 1 1
372 1 20.4777 4.49636 6.24562 -1.78554 -4.53315 6.25496 1 1
373 1 20.5596 6.26179 4.42788 0.913061 3.37965 3.87248 1 1
374 1 19.6745 7.17721 5.30721 -0.659843 4.32173 2.09927 1 1
375 1 0.0398073 7.16328 3.52166 4.50817 1.51716 4.45297 1 1
376 1 1.75481 7.16686 5.34419 -8.5555 2.70378 2.97529 1 1
377 1 1.75631 8.97098 3.55297 -9.15123 -4.97597 -4.49006 1 1
378 1 0.875926 8.0479 4.45132 -2.96047 8.10498 -1.31026 1 1
379 1 2.69803 8.06578 6.25013 3.19433 1.26916 -6.6581 1 1
380 1 0.889868 9.86303 6.25794 3.10511 7.96592 -7.51143 1 1
381 1 2.65452 9.83079 4.49783 -1.7158 0.890151 7.27676 1 1
382 1 0.0158896 8.9509 5.37786 -0.891379 -1.85362 0.677317 1 1
383 1 1.75329 10.6971 5.36666 -7.3078 -7.2131 2.20003 1 1
384 1 3.581 7.13895 3.56196 8.70989 2.62698 6.22039 1 1
385 1 7.1693 7.13605 3.6087 3.74857 -0.955225 -4.36968 1 1
386 1 3.54946 10.6798 3.5442 2.70227 0.72103 3.93303 1 1
387 1 3.58856 8.93872 5.37548 0.182482 -8.69992 4.69886 1 1
388 1 5.35303 8.88985 3.56294 -5.00717 -2.17242 0.182235 1 1
389 1 4.4616 8.04238 4.43121 -3.89907 -0.222172 -9.57257 1 1
390 1 4.47832 9.82129 6.24036 -6.38239 4.02506 -5.79266 1 1
391 1 6.22476 9.81228 4.47127 -0.302377 -3.5583 2.12798 1 1
392 1 8.90545 7.08613 5.37089 7.1586 -3.15077 0.363556 1 1
393 1 7.13387 8.89381 5.37223 7.20507 -0.374796 0.526944 1 1
394 1 8.84631 8.91519 3.52916 -10.3213 -6.0138 2.08333 1 1
395 1 8.03499 7.99923 4.47458 -5.06106 -9.01092 -6.59184 1 1
396 1 9.81973 9.79667 4.45825 2.39007 -0.658021 -4.35454 1 1
397 1 10.6738 8.90678 5.38782 2.11059 -0.187626 4.45362 1 1
398 1 10.7187 10.6638 3.54379 3.1054 4.30007 -9.76043 1 1
399 1 9.76535 7.95068 6.25718 2.51235 0.848804 1.75338 1 1
400 1 12.5001 7.13322 5.38617 2.84563 -12.3523 -3.58644 1 1
401 1 10.7105 7.12814 3.55727 3.36996 3.79728 2.06792 1 1
402 1 12.4831 8.92407 3.53109 3.69741 -8.20538 -3.69755 1 1
403 1 11.5621 8.04627 4.44994 -2.92908 -6.65541 0.32328 1 1
404 1 13.395 9.85005 4.43346 -0.550754 -9.23263 0.580463 1 1
405 1 14.2119 7.13995 3.5028 1.55231 1.19311 1.08284 1 1
406 1 14.2724 8.90626 5.35047 0.449547 0.401995 8.18769 1 1
407 1 17.8598 7.17468 3.56159 -3.97024 -8.78353 6.21452 1 1
408 1 16.0625 8.97124 3.5195 11.2828 1.8184 7.31842 1 1
409 1 15.1632 8.00433 4.39017 -7.02861 -2.79591 1.9178 1 1
410 1 16.9939 9.83885 4.44401 -0.0990709 -3.76882 0.508722 1 1
411 1 16.0347 10.7059 5.34279 3.62653 0.776668 -3.6426 1 1
412 1 16.9279 8.05414 6.22261 -6.6148 6.4295 6.12607 1 1
413 1 17.8824 8.93487 5.37399 -2.26006 3.05833 3.63075 1 1
414 1 19.6644 8.94638 3.54469 2.50666 -2.65379 -1.97602 1 1
415 1 18.7975 8.05208 4.44295 -0.69834 5.20484 -6.08776 1 1
416 1 18.7512 9.83368 6.25369 -2.84068 2.06165 -0.510034 1 1
417 1 20.5518 9.83801 4.43527 5.47796 0.85158 -3.07468 1 1
418 1 20.5453 8.10978 6.21788 1.026 0.282091 1.3465 1 1
419 1 19.6309 10.6977 5.33961 -0.0930683 -5.6804 5.18605 1 1
420 1 0.0585885 10.674 3.52499 -1.87769 -2.1234 2.89318 1 1
421 1 1.80465 12.4344 3.55527 -1.10757 -5.45099 3.54834 1 1
422 1 0.937925 11.5472 4.40873 -1.84533 -4.82511 3.38333 1 1
423 1 2.66655 11.6069 6.18152 2.22124 2.74719 0.702585 1 1
424 1 0.885136 13.3702 6.25805 -7.40358 5.50887 8.13115 1 1
425 1 2.6391 13.3749 4.41632 7.23051 8.85313 1.58803 1 1
426 1 0.0156901 12.4565 5.33575 -1.39698 -3.82133 4.82269 1 1
427 1 5.3051 10.6805 5.38035 -2.19006 -0.716454 1.82959 1 1
428 1 3.59258 14.2545 3.59176 -0.89787 -7.48318 1.06957 1 1
429 1 3.50086 12.5028 5.32845 10.6921 6.22769 -5.70451 1 1
430 1 5.37728 12.4609 3.54454 1.91137 4.36911 -2.49707 1 1
431 1 4.43752 11.5845 4.45529 -2.66595 -2.07333 1.36653 1 1
432 1 6.25985 13.3716 4.44338 3.7922 3.0816 -2.35993 1 1
433 1 7.1284 14.267 3.561 6.22075 1.04393 5.7245 1 1
434 1 6.23795 11.5915 6.24848 -7.26784 -4.51474 6.52012 1 1
435 1 7.10328 10.6876 3.55953 1.36255 2.61803 -9.44613 1 1
436 1 7.10391 12.4806 5.36075 1.10474 -5.83424 2.9393 1 1
437 1 8.94181 10.718 5.32017 -5.51994 -9.57676 -4.14717 1 1
438 1 8.89266 12.4336 3.52503 -5.52325 5.59647 0.537033 1 1
439 1 8.02662 11.575 4.43953 -3.9476 1.77675 -1.31571 1 1
440 1 9.81427 11.5554 6.23805 0.483618 2.32412 -3.61233 1 1
441 1 7.97634 13.3545 6.26032 6.60473 2.61753 -8.01035 1 1
442 1 9.80719 13.4052 4.48648 -2.66145 1.00141 7.14486 1 1
443 1 10.6757 14.2599 3.57908 2.30687 5.6574 4.028 1 1
444 1 12.4968 10.6807 5.3569 2.45509 7.84681 -1.98211 1 1
445 1 10.7191 12.4723 5.35984 -9.13147 -3.54172 -13.233 1 1
446 1 12.5127 12.5047 3.58212 1.93171 0.897034 4.15305 1 1
447 1 11.6442 11.575 4.45991 3.66635 -1.85382 -3.84484 1 1
448 1 13.368 11.562 6.25192 4.12433 9.63714 -3.78981 1 1
449 1 11.6037 13.3909 6.25626 -4.53317 1.35203 1.57715 1 1
450 1 13.4257 13.3631 4.47412 3.29925 2.7862 3.68365 1 1
451 1 14.3176 10.7143 3.52514 -2.80542 -3.18134 1.0553 1 1
452 1 14.2503 12.4621 5.33979 -4.42397 2.06052 -0.451882 1 1
453 1 16.0507 12.4667 3.50124 -0.957857 -4.18567 -9.00108 1 1
454 1 15.1642 11.6278 4.43827 -2.33463 -0.772959 -12.0901 1 1
455 1 16.9467 11.5571 6.26305 -1.33149 -5.5963 2.54254 1 1
456 1 16.9701 13.33 4.41259 -1.83972 0.585506 2.1152 1 1
457 1 17.8829 12.4693 5.3312 1.06976 -2.30484 3.52006 1 1
458 1 15.1304 13.3403 6.25975 -2.85658 2.05206 -2.34857 1 1
459 1 17.8303 10.7309 3.52583 -4.03512 -0.556959 -4.88516 1 1
460 1 19.6461 12.4566 3.55479 -2.24839 1.52133 1.53658 1 1
461 1 18.7636 11.5608 4.40541 2.90237 -2.83841 -4.05437 1 1
462 1 18.7088 13.3829 6.27331 3.17758 -3.41784 -5.84862 1 1
463 1 20.5449 13.2991 4.45316 3.62694 -1.25786 -4.20794 1 1
464 1 20.5181 11.5892 6.23069 8.54708 3.3462 -2.20525 1 1
465 1 1.7406 14.2557 5.30309 0.718878 3.89895 5.17364 1 1
466 1 1.76435 16.0435 3.57899 -8.1047 2.54847 0.0983496 1 1
467 1 0.831096 15.1329 4.46304 3.66049 -7.65588 -3.19795 1 1
468 1 2.6333 15.0986 6.24946 1.20094 7.50839 -1.80687 1 1
469 1 2.69282 16.9283 4.47832 2.09906 -2.86826 5.54712 1 1
470 1 0.00791199 16.0046 5.33791 -2.92733 10.3682 1.64703 1 1
471 1 21.369 14.2404 3.54722 -1.00776 0.285443 3.46518 1 1
472 1 1.74321 17.776 5.39749 2.59962 -5.76513 3.2497 1 1
473 1 5.34243 14.2595 5.36804 -8.4978 1.25518 -3.6968 1 1
474 1 3.54448 16.0495 5.3624 2.6135 -5.68585 -3.90454 1 1
475 1 5.37196 16.0406 3.59961 4.8632 2.24465 -7.53577 1 1
476 1 4.44762 15.1754 4.51765 -3.64702 2.20338 -0.146626 1 1
477 1 4.44617 16.9329 6.2576 -0.962557 -6.36819 3.77697 1 1
478 1 6.21797 15.1437 6.23998 8.36568 -3.68038 -0.0511339 1 1
479 1 6.25335 16.9074 4.47893 10.3075 -2.29024 2.1111 1 1
480 1 7.10556 16.0517 5.39748 -1.64896 8.3336 -6.5227 1 1
481 1 8.86693 14.2668 5.36761 2.85673 2.79007 9.10984 1 1
482 1 8.96964 16.055 3.59043 -0.226853 -2.00443 -5.75794 1 1
483 1 8.01525 15.1574 4.53206 0.789466 -4.41002 -1.44485 1 1
484 1 8.0008 16.9577 6.27518 -0.619532 0.768981 -0.659931 1 1
485 1 9.75094 15.126 6.26669 -2.39663 2.60665 2.10243 1 1
486 1 9.7576 16.9499 4.46075 7.15675 6.77073 -0.573248 1 1
487 1 10.6747 16.0415 5.35969 -3.51944 2.31993 8.92613 1 1
488 1 8.88644 17.8222 5.3543 0.151755 -6.66335 -4.87458 1 1
489 1 10.6376 17.8025 3.54784 -5.56647 1.58886 3.74944 1 1
490 1 12.494 14.2692 5.36782 -9.4243 -0.439182 1.24357 1 1
491 1 12.4579 16.0644 3.56103 3.48343 -1.25643 5.25096 1 1
492 1 11.5863 15.1627 4.47097 -1.94603 18.5321 -1.30127 1 1
493 1 11.5443 16.9413 6.22337 5.62111 -3.14305 -0.848488 1 1
494 1 13.3721 16.9322 4.53044 -6.71119 -0.36098 2.9873 1 1
495 1 13.3705 15.1617 6.27333 6.98264 2.58933 -3.10525 1 1
496 1 12.4662 17.7838 5.40407 -0.0613367 0.0792693 -5.192 1 1
497 1 14.2704 14.2834 3.55888 0.0294403 0.90155 2.81761 1 1
498 1 16.0698 14.2259 5.36357 4.05557 -0.896348 -2.98325 1 1
499 1 17.8524 14.2302 3.57108 -3.91996 -12.8834 6.96188 1 1
500 1 14.223 16.0357 5.35436 5.25529 6.16308 2.59709 1 1
501 1 14.2803 17.8228 3.60463 -8.5796 3.56599 10.5613 1 1
502 1 16.1005 16.0156 3.55716 -4.58651 0.637892 -0.139567 1 1
503 1 15.181 15.1337 4.4467 -5.65375 0.941861 -7.88505 1 1
504 1 16.9637 16.9454 4.50522 0.212255 3.73639 -2.20312 1 1
505 1 16.9535 15.1526 6.26652 -6.6212 7.17902 0.303235 1 1
506 1 17.7941 16.045 5.35308 2.92028 1.81478 9.48376 1 1
507 1 19.5558 14.239 5.35717 -1.59883 2.9415 8.68693 1 1
508 1 19.6016 16.013 3.56831 7.64317 -3.61367 -0.72089 1 1
509 1 18.7017 15.1286 4.45674 -0.475004 6.52691 -0.968079 1 1
510 1 20.4941 16.9163 4.50663 3.16917 -0.908551 -10.0962 1 1
511 1 19.5937 17.79 5.38444 -1.04198 -2.25575 -1.299 1 1
512 1 20.5173 15.1369 6.22825 -2.99086 -0.939598 -2.90305 1 1
513 1 1.76554 19.5949 3.60725 3.39751 4.39676 5.40712 1 1
514 1 0.848232 18.7207 4.5614 0.710923 -5.14167 -6.51448 1 1
515 1 0.903497 20.5306 6.30792 -5.42281 -4.0073 -1.95856 1 1
516 1 2.66836 20.4989 4.55292 1.8698 1.48126 4.86207 1 1
517 1 0.00552474 17.8757 3.63962 -1.62777 -3.87108 2.7906 1 1
518 1 21.3833 19.6088 5.37727 -0.473165 2.38953 -4.15483 1 1
519 1 2.68523 18.6701 6.28891 -1.70658 -3.88616 -3.98216 1 1
520 1 5.32138 17.8642 5.387 6.06524 -0.0900386 7.66173 1 1
521 1 3.54349 17.8317 3.63511 7.04502 -2.58588 -6.05623 1 1
522 1 3.533 19.5967 5.40055 7.92442 -4.67789 3.02199 1 1
523 1 5.26641 19.5864 3.65085 -1.12375 -2.0004 -3.40051 1 1
524 1 4.3926 18.6871 4.51376 2.94407 -0.663777 -3.06391 1 1
525 1 4.42499 20.442 6.30277 -5.05136 -0.371701 1.28706 1 1
526 1 6.23412 18.6988 6.2815 -4.73277 5.95277 -5.11067 1 1
527 1 6.21873 20.4477 4.5615 -2.50384 -4.82517 -1.33288 1 1
528 1 7.12344 17.8213 3.61337 1.90293 1.79145 -4.4184 1 1
529 1 7.15085 19.6388 5.416 -2.35352 -1.79284 -0.0942666 1 1
530 1 8.90292 0.0284844 5.44168 0.14088 2.96976 -1.1155 1 1
531 1 8.87999 19.597 3.59498 2.81671 -5.53858 -6.26068 1 1
532 1 8.0222 18.7372 4.50359 9.2959 -6.76803 2.84127 1 1
533 1 7.98362 20.5466 6.32956 2.52049 -5.96946 1.98027 1 1
534 1 9.74927 18.6929 6.25708 -4.6587 -13.0832 -2.43057 1 1
535 1 9.77327 20.4972 4.50614 -5.40131 4.92534 8.21847 1 1
536 1 10.6617 19.5783 5.37313 4.35186 3.26317 0.654279 1 1
537 1 10.7049 21.3925 3.60869 -9.99609 3.5868 0.989658 1 1
538 1 12.4838 19.5818 3.57587 -5.29552 9.18445 -0.0650638 1 1
539 1 11.6023 18.6802 4.47461 -1.51384 -3.78254 1.09171 1 1
540 1 13.361 18.7358 6.29532 -2.28909 2.87874 -3.96192 1 1
541 1 13.3699 20.5114 4.45721 -14.9692 0.0524788 -1.69853 1 1
542 1 16.0342 17.8616 5.36127 2.84832 4.27657 5.44035 1 1
543 1 14.3179 0.0561173 3.5978 0.323846 3.37158 -0.645951 1 1
544 1 14.2297 19.6253 5.36548 -0.0482249 6.73419 -3.09753 1 1
545 1 16.0337 19.6106 3.6036 -3.72311 5.42354 -2.88691 1 1
546 1 15.1392 18.7172 4.48415 3.85254 2.39358 3.37985 1 1
547 1 16.9216 18.7534 6.27844 -3.76095 -0.478954 -1.28293 1 1
548 1 16.8955 20.5471 4.49224 -1.72715 -0.425544 4.48248 1 1
549 1 17.84 19.6504 5.34139 -1.37925 12.6314 7.42772 1 1
550 1 17.872 17.8514 3.56764 -8.30634 -1.25568 -5.72438 1 1
551 1 19.6253 19.608 3.55002 -2.3839 7.06158 1.74111 1 1
552 1 18.7522 18.7128 4.44953 -3.92513 2.59837 -7.62755 1 1
553 1 18.6756 20.472 6.29961 9.57345 2.41105 3.10312 1 1
554 1 20.4439 18.7169 6.26551 -0.201444 5.71885 1.98767 1 1
555 1 20.4504 20.5085 4.4939 6.23356 -2.35358 -10.0569 1 1
556 1 2.66744 0.962448 6.29722 10.3425 -1.73808 -4.71578 1 1