ITEM: TIMESTEP
2050
ITEM: NUMBER OF ATOMS
2952
ITEM: BOX BOUNDS pp pp mm
0.0000000000000000e+00 2.1394294200000001e+01
0.0000000000000000e+00 2.1394294200000001e+01
-4.4571446250000002e-01 5.3485735500000004e+01
ITEM: ATOMS id type x y z vx vy vz v_is_diamond c_structure_type
1 1 0 0 0 0 0 0 1 3
2 1 1.78286 1.78286 0 0 0 0 1 3
3 1 0.891429 0.891429 0.891429 0 0 0 1 2
4 1 0.92202 2.70283 2.73104 -5.62812 1.54085 2.82935 1 1
5 1 2.64773 0.872276 2.68092 1.60772 -8.19562 0.559145 1 1
6 1 2.67429 2.67429 0.891429 0 0 0 1 2
7 1 0.0488169 1.78168 1.80124 1.97056 -2.84628 2.30131 1 1
8 1 1.78261 21.3697 1.77932 -3.80027 4.34559 -6.5876 1 1
9 1 1.81043 3.55515 1.85373 3.75174 -4.1402 -5.47542 1 1
10 1 3.58479 1.7249 1.77141 -4.7695 4.72352 -0.733981 1 1
11 1 3.56572 0 0 0 0 0 1 3
12 1 5.34857 1.78286 0 0 0 0 1 3
13 1 4.45714 0.891429 0.891429 0 0 0 1 2
14 1 4.4735 2.60837 2.65985 0.586289 -0.975418 -3.6043 1 1
15 1 6.26082 0.893979 2.66182 -5.89213 6.97386 8.32828 1 1
16 1 6.24 2.67429 0.891429 0 0 0 1 2
17 1 7.13922 1.82324 1.7889 -5.39624 1.25752 -6.16244 1 1
18 1 7.13143 0 0 0 0 0 1 3
19 1 8.02286 0.891429 0.891429 0 0 0 1 2
20 1 8.0146 2.70875 2.6644 -1.77593 -3.46721 -3.02095 1 1
21 1 8.91429 1.78286 0 0 0 0 1 3
22 1 9.80172 0.908765 2.66958 2.45417 -4.18508 -4.94065 1 1
23 1 9.80572 2.67429 0.891429 0 0 0 1 2
24 1 8.93535 21.3547 1.80285 -2.26186 3.74743 2.25666 1 1
25 1 10.6954 1.7777 1.75127 0.286098 -5.67695 -4.18705 1 1
26 1 10.6971 0 0 0 0 0 1 3
27 1 12.48 1.78286 0 0 0 0 1 3
28 1 11.5886 0.891429 0.891429 0 0 0 1 2
29 1 11.5651 2.68909 2.69198 8.68309 -0.623816 4.91404 1 1
30 1 13.3454 0.936934 2.69657 9.0975 0.769533 -1.79767 1 1
31 1 13.3714 2.67429 0.891429 0 0 0 1 2
32 1 14.2526 1.7607 1.79544 -2.54727 0.935041 0.443201 1 1
33 1 14.2629 0 0 0 0 0 1 3
34 1 16.0457 1.78286 0 0 0 0 1 3
35 1 15.1543 0.891429 0.891429 0 0 0 1 2
36 1 15.1514 2.64978 2.73453 -4.599 2.73794 -2.32798 1 1
37 1 16.8964 0.848405 2.67403 -0.151795 -12.325 1.33541 1 1
38 1 16.9371 2.67429 0.891429 0 0 0 1 2
39 1 16.0543 21.3409 1.76232 0.916313 10.9402 4.86108 1 1
40 1 17.8205 1.74641 1.79241 -10.676 5.82505 -2.52355 1 1
41 1 17.8286 0 0 0 0 0 1 3
42 1 19.6114 1.78286 0 0 0 0 1 3
43 1 18.72 0.891429 0.891429 0 0 0 1 2
44 1 18.7322 2.64016 2.64944 -2.92178 -3.71289 -4.1113 1 1
45 1 20.5129 0.898957 2.65915 2.82047 7.81147 -1.78016 1 1
46 1 20.5029 2.67429 0.891429 0 0 0 1 2
47 1 0 3.56572 0 0 0 0 1 3
48 1 1.78286 5.34857 0 0 0 0 1 3
49 1 0.891429 4.45714 0.891429 0 0 0 1 2
50 1 0.943879 6.25063 2.73179 -1.65952 8.02541 7.39669 1 1
51 1 2.70146 4.44722 2.74973 9.67487 -1.74788 -2.24037 1 1
52 1 2.67429 6.24 0.891429 0 0 0 1 2
53 1 3.57405 5.33526 1.78584 -2.36258 -2.60432 11.7277 1 1
54 1 5.34073 3.55539 1.77231 -7.8856 7.69633 -1.09026 1 1
55 1 3.56572 3.56572 0 0 0 0 1 3
56 1 5.34857 5.34857 0 0 0 0 1 3
57 1 4.45714 4.45714 0.891429 0 0 0 1 2
58 1 4.45997 6.24315 2.66604 2.47748 -1.8696 -7.13199 1 1
59 1 6.23942 4.44711 2.69391 -0.908396 -3.12749 -2.3501 1 1
60 1 6.24 6.24 0.891429 0 0 0 1 2
61 1 5.39338 7.14768 1.80279 3.8773 0.558956 -0.844968 1 1
62 1 7.11468 5.36071 1.75332 -4.32558 -3.70749 -0.121699 1 1
63 1 7.13143 3.56572 0 0 0 0 1 3
64 1 8.89691 3.57244 1.76695 6.19388 0.339356 -2.85199 1 1
65 1 8.02286 4.45714 0.891429 0 0 0 1 2
66 1 8.00482 6.22034 2.62967 -2.59599 7.43002 -3.42657 1 1
67 1 8.91429 5.34857 0 0 0 0 1 3
68 1 9.80282 4.46032 2.67547 -0.599605 -3.94329 -1.79832 1 1
69 1 9.80572 6.24 0.891429 0 0 0 1 2
70 1 10.6834 5.36598 1.77686 1.72933 -4.13943 -8.78262 1 1
71 1 12.4691 3.58073 1.82254 0.57786 6.13223 4.21433 1 1
72 1 10.6971 3.56572 0 0 0 0 1 3
73 1 12.48 5.34857 0 0 0 0 1 3
74 1 11.5886 4.45714 0.891429 0 0 0 1 2
75 1 11.6046 6.25955 2.64323 6.36464 5.97151 8.03564 1 1
76 1 13.3417 4.43982 2.71187 2.7956 -0.471212 -3.68513 1 1
77 1 13.3714 6.24 0.891429 0 0 0 1 2
78 1 14.2495 5.33778 1.76003 -4.96771 7.38553 -4.75825 1 1
79 1 16.0472 3.53904 1.78885 6.66675 5.96508 -3.96585 1 1
80 1 14.2629 3.56572 0 0 0 0 1 3
81 1 16.0457 5.34857 0 0 0 0 1 3
82 1 15.1543 4.45714 0.891429 0 0 0 1 2
83 1 15.16 6.24234 2.66436 2.33121 4.34964 -2.89365 1 1
84 1 16.9064 4.42895 2.668 1.25699 6.74117 0.669615 1 1
85 1 16.9371 6.24 0.891429 0 0 0 1 2
86 1 17.8335 5.27132 1.79518 -11.6023 -3.7633 -2.33631 1 1
87 1 19.5637 3.57269 1.74587 -4.90688 -5.86041 1.65389 1 1
88 1 0.0179996 5.3704 1.75719 2.45424 2.67079 4.91696 1 1
89 1 17.8286 3.56572 0 0 0 0 1 3
90 1 19.6114 5.34857 0 0 0 0 1 3
91 1 18.72 4.45714 0.891429 0 0 0 1 2
92 1 18.7053 6.2197 2.69224 1.99363 -0.693171 -2.31063 1 1
93 1 20.5202 4.46412 2.6725 -3.13724 5.94635 0.183458 1 1
94 1 20.5029 6.24 0.891429 0 0 0 1 2
95 1 19.6128 7.08343 1.80372 3.9441 0.51446 -1.08387 1 1
96 1 1.81669 7.14473 1.81369 1.52861 -7.17206 4.10992 1 1
97 1 0 7.13143 0 0 0 0 1 3
98 1 0.891429 8.02286 0.891429 0 0 0 1 2
99 1 2.67297 8.05142 2.73578 4.18348 -6.9341 4.27266 1 1
100 1 1.78286 8.91429 0 0 0 0 1 3
101 1 0.868627 9.78884 2.69104 -4.3859 3.71519 0.331124 1 1
102 1 2.67429 9.80572 0.891429 0 0 0 1 2
103 1 1.78109 10.6985 1.80976 -2.73674 -2.46604 3.91018 1 1
104 1 3.59107 8.92861 1.79166 6.79213 -3.08253 -7.41828 1 1
105 1 3.56572 7.13143 0 0 0 0 1 3
106 1 4.45714 8.02286 0.891429 0 0 0 1 2
107 1 6.28222 8.04171 2.66997 5.93604 -1.43579 -1.61059 1 1
108 1 5.34857 8.91429 0 0 0 0 1 3
109 1 4.4379 9.7868 2.6812 -1.00977 5.31408 -1.71514 1 1
110 1 6.24 9.80572 0.891429 0 0 0 1 2
111 1 7.1285 8.93501 1.7751 -1.3152 -0.973834 8.18371 1 1
112 1 8.90467 7.15028 1.76932 7.82756 -4.54659 1.87 1 1
113 1 7.13143 7.13143 0 0 0 0 1 3
114 1 8.02286 8.02286 0.891429 0 0 0 1 2
115 1 9.80604 8.02444 2.66521 -11.3435 7.1706 0.312316 1 1
116 1 7.95187 9.82479 2.66018 3.0126 -1.09123 -3.6229 1 1
117 1 8.91429 8.91429 0 0 0 0 1 3
118 1 9.80572 9.80572 0.891429 0 0 0 1 2
119 1 10.7089 8.87878 1.78238 -1.30585 6.35228 -1.80347 1 1
120 1 12.4796 7.14126 1.77424 5.20842 2.65916 3.92255 1 1
121 1 10.6971 7.13143 0 0 0 0 1 3
122 1 11.5886 8.02286 0.891429 0 0 0 1 2
123 1 13.3634 8.07502 2.67851 -0.154233 -4.32676 -0.741889 1 1
124 1 12.48 8.91429 0 0 0 0 1 3
125 1 11.6093 9.79165 2.65626 -0.350459 -2.14509 -2.75835 1 1
126 1 13.3714 9.80572 0.891429 0 0 0 1 2
127 1 12.5041 10.6756 1.79645 -0.855717 2.53511 4.79548 1 1
128 1 16.0472 7.1373 1.79917 3.43509 5.75585 -0.211037 1 1
129 1 14.2933 8.94014 1.78623 9.0881 1.697 2.84771 1 1
130 1 14.2629 7.13143 0 0 0 0 1 3
131 1 15.1543 8.02286 0.891429 0 0 0 1 2
132 1 16.9452 8.02551 2.67057 -3.65945 -2.43318 1.72865 1 1
133 1 16.0457 8.91429 0 0 0 0 1 3
134 1 15.1933 9.79593 2.69845 2.09928 -5.23372 0.64235 1 1
135 1 16.9371 9.80572 0.891429 0 0 0 1 2
136 1 16.0178 10.6611 1.79161 -3.10527 -3.20362 -0.45263 1 1
137 1 17.7907 8.90616 1.77978 3.92519 1.8326 -3.18155 1 1
138 1 21.3593 8.89954 1.782 1.92331 5.32124 -8.14771 1 1
139 1 17.8286 7.13143 0 0 0 0 1 3
140 1 18.72 8.02286 0.891429 0 0 0 1 2
141 1 20.4837 8.02983 2.67962 10.5322 -2.83244 3.02957 1 1
142 1 19.6114 8.91429 0 0 0 0 1 3
143 1 18.6999 9.78948 2.68672 0.676596 4.04173 -1.54713 1 1
144 1 20.5029 9.80572 0.891429 0 0 0 1 2
145 1 0 10.6971 0 0 0 0 1 3
146 1 1.78286 12.48 0 0 0 0 1 3
147 1 0.891429 11.5886 0.891429 0 0 0 1 2
148 1 2.65955 11.5685 2.75967 1.53839 -0.393954 5.32214 1 1
149 1 0.913636 13.3329 2.76905 1.23768 2.59831 -9.47718 1 1
150 1 2.67429 13.3714 0.891429 0 0 0 1 2
151 1 21.4104 12.4679 1.81197 2.14198 1.82611 -2.61209 1 1
152 1 5.35309 10.7173 1.7589 1.00193 -1.63026 4.53808 1 1
153 1 3.56535 12.4837 1.79863 0.31065 0.519382 -6.39337 1 1
154 1 3.56572 10.6971 0 0 0 0 1 3
155 1 5.34857 12.48 0 0 0 0 1 3
156 1 4.45714 11.5886 0.891429 0 0 0 1 2
157 1 6.26461 11.5645 2.66959 6.96716 4.70352 -1.12325 1 1
158 1 4.46267 13.3437 2.70477 -2.99425 0.572622 -0.319498 1 1
159 1 6.24 13.3714 0.891429 0 0 0 1 2
160 1 5.35137 14.2634 1.76154 -7.02355 1.20008 0.286614 1 1
161 1 8.88415 10.7287 1.74403 1.04222 2.33263 -0.307499 1 1
162 1 7.12276 12.5225 1.75637 -4.24889 4.84322 4.80281 1 1
163 1 7.13143 10.6971 0 0 0 0 1 3
164 1 8.02286 11.5886 0.891429 0 0 0 1 2
165 1 8.91429 12.48 0 0 0 0 1 3
166 1 9.83207 11.5609 2.68294 -2.53933 -0.931909 -3.20071 1 1
167 1 7.99557 13.3921 2.68001 -2.78881 -4.26431 1.61853 1 1
168 1 9.80572 13.3714 0.891429 0 0 0 1 2
169 1 10.7178 12.5084 1.82059 9.60842 -1.39885 -3.86705 1 1
170 1 10.6971 10.6971 0 0 0 0 1 3
171 1 12.48 12.48 0 0 0 0 1 3
172 1 11.5886 11.5886 0.891429 0 0 0 1 2
173 1 13.3915 11.5638 2.68015 -10.6222 -2.00602 4.10713 1 1
174 1 11.5987 13.3905 2.73014 -9.70101 -1.24603 -2.16794 1 1
175 1 13.3714 13.3714 0.891429 0 0 0 1 2
176 1 12.4565 14.2655 1.80536 7.57064 -14.6875 -3.198 1 1
177 1 14.2708 12.4531 1.77671 -1.01252 1.74378 6.04017 1 1
178 1 14.2629 10.6971 0 0 0 0 1 3
179 1 16.0457 12.48 0 0 0 0 1 3
180 1 15.1543 11.5886 0.891429 0 0 0 1 2
181 1 16.8809 11.5684 2.68187 2.29901 -0.317382 -1.99109 1 1
182 1 15.0887 13.366 2.64714 6.7878 7.06973 0.455289 1 1
183 1 16.9371 13.3714 0.891429 0 0 0 1 2
184 1 17.7931 12.4696 1.81408 -4.14037 3.52455 9.06779 1 1
185 1 19.5718 10.7132 1.81089 -10.0863 -2.86725 4.88569 1 1
186 1 17.8286 10.6971 0 0 0 0 1 3
187 1 19.6114 12.48 0 0 0 0 1 3
188 1 18.72 11.5886 0.891429 0 0 0 1 2
189 1 20.5149 11.5579 2.71138 -2.69385 9.23229 -3.12298 1 1
190 1 18.7247 13.4086 2.77473 -6.64869 2.41547 1.12424 1 1
191 1 20.5029 13.3714 0.891429 0 0 0 1 2
192 1 19.6086 14.2622 1.81045 7.86459 6.71423 -0.847321 1 1
193 1 1.77058 14.243 1.82151 -1.77964 2.55677 -0.843808 1 1
194 1 0 14.2629 0 0 0 0 1 3
195 1 1.78286 16.0457 0 0 0 0 1 3
196 1 0.891429 15.1543 0.891429 0 0 0 1 2
197 1 0.887888 16.9429 2.64531 -8.11405 -0.221609 -2.49535 1 1
198 1 2.67759 15.1664 2.68114 -6.12659 -2.77516 -1.42607 1 1
199 1 2.67429 16.9371 0.891429 0 0 0 1 2
200 1 21.3777 16.043 1.78672 3.87252 -3.46675 -4.0263 1 1
201 1 3.56298 16.0306 1.78521 -4.40066 1.34749 -3.64758 1 1
202 1 3.56572 14.2629 0 0 0 0 1 3
203 1 5.34857 16.0457 0 0 0 0 1 3
204 1 4.45714 15.1543 0.891429 0 0 0 1 2
205 1 4.48302 16.9698 2.67615 6.94114 7.79402 -5.03118 1 1
206 1 6.2387 15.1277 2.63935 -5.91963 -8.48304 0.731757 1 1
207 1 6.24 16.9371 0.891429 0 0 0 1 2
208 1 7.1213 16.0116 1.7721 -5.44112 -2.35613 -2.29886 1 1
209 1 5.36568 17.8504 1.78777 3.20876 6.11335 -0.811948 1 1
210 1 8.92516 14.2784 1.78194 -2.20363 5.05933 3.70055 1 1
211 1 7.13143 14.2629 0 0 0 0 1 3
212 1 8.02286 15.1543 0.891429 0 0 0 1 2
213 1 8.0704 16.9229 2.66831 -5.98844 3.98699 -3.16575 1 1
214 1 8.91429 16.0457 0 0 0 0 1 3
215 1 9.8207 15.1696 2.67883 1.37637 -4.20872 -2.0862 1 1
216 1 9.80572 16.9371 0.891429 0 0 0 1 2
217 1 8.90275 17.8078 1.79142 -3.73077 3.32618 7.19243 1 1
218 1 10.6979 16.0577 1.77535 -3.77668 -6.80159 2.50571 1 1
219 1 10.6971 14.2629 0 0 0 0 1 3
220 1 12.48 16.0457 0 0 0 0 1 3
221 1 11.5886 15.1543 0.891429 0 0 0 1 2
222 1 11.5531 16.9522 2.63676 -1.45913 -4.34491 7.59068 1 1
223 1 13.3112 15.1588 2.69173 1.23221 -5.04695 -0.894594 1 1
224 1 13.3714 16.9371 0.891429 0 0 0 1 2
225 1 12.5043 17.8193 1.7719 10.19 2.35044 2.63428 1 1
226 1 16.038 14.2285 1.77513 -4.32421 -0.402413 1.85378 1 1
227 1 14.2266 16.0189 1.81158 -7.69476 -4.07189 -2.70616 1 1
228 1 14.2629 14.2629 0 0 0 0 1 3
229 1 16.0457 16.0457 0 0 0 0 1 3
230 1 15.1543 15.1543 0.891429 0 0 0 1 2
231 1 15.1418 16.9247 2.65099 -5.34528 4.1107 0.770041 1 1
232 1 16.9259 15.118 2.68638 -1.41223 5.91899 8.81676 1 1
233 1 16.9371 16.9371 0.891429 0 0 0 1 2
234 1 17.8176 16.0006 1.78839 -1.02471 -9.23512 -4.85763 1 1
235 1 17.8286 14.2629 0 0 0 0 1 3
236 1 19.6114 16.0457 0 0 0 0 1 3
237 1 18.72 15.1543 0.891429 0 0 0 1 2
238 1 18.7278 16.9071 2.67394 -1.00096 -3.37396 0.283296 1 1
239 1 20.4942 15.1285 2.65587 1.66253 5.06447 -7.03382 1 1
240 1 20.5029 16.9371 0.891429 0 0 0 1 2
241 1 19.6106 17.8034 1.80351 -0.735723 -2.15563 3.89508 1 1
242 1 1.76676 17.8371 1.77847 1.34393 3.20397 -6.98024 1 1
243 1 0 17.8286 0 0 0 0 1 3
244 1 1.78286 19.6114 0 0 0 0 1 3
245 1 0.891429 18.72 0.891429 0 0 0 1 2
246 1 0.868751 20.4528 2.67104 -8.38439 7.6918 -0.335981 1 1
247 1 2.73904 18.7266 2.6519 -2.47726 -2.3721 5.16104 1 1
248 1 2.67429 20.5029 0.891429 0 0 0 1 2
249 1 3.57113 19.6513 1.77288 3.84136 -2.536 -8.21811 1 1
250 1 -0.00426238 19.591 1.80148 -6.18479 0.81435 7.81024 1 1
251 1 5.36744 21.3875 1.75768 -1.51 2.29071 -0.711679 1 1
252 1 3.56572 17.8286 0 0 0 0 1 3
253 1 5.34857 19.6114 0 0 0 0 1 3
254 1 4.45714 18.72 0.891429 0 0 0 1 2
255 1 4.48169 20.5547 2.6668 -8.5019 3.26385 -2.91905 1 1
256 1 6.26491 18.7222 2.64389 0.202834 3.04127 -2.33214 1 1
257 1 6.24 20.5029 0.891429 0 0 0 1 2
258 1 7.16463 19.6098 1.75288 -2.32744 5.57383 -3.64338 1 1
259 1 7.13143 17.8286 0 0 0 0 1 3
260 1 8.02286 18.72 0.891429 0 0 0 1 2
261 1 8.04988 20.4855 2.66271 5.84392 -7.73721 -10.0254 1 1
262 1 8.91429 19.6114 0 0 0 0 1 3
263 1 9.79701 18.7179 2.6721 0.778654 3.88971 5.3806 1 1
264 1 9.80572 20.5029 0.891429 0 0 0 1 2
265 1 10.6991 19.6093 1.80082 0.789735 0.794727 -1.39091 1 1
266 1 12.4557 0.0290153 1.76089 7.1447 -3.36704 -12.1165 1 1
267 1 10.6971 17.8286 0 0 0 0 1 3
268 1 12.48 19.6114 0 0 0 0 1 3
269 1 11.5886 18.72 0.891429 0 0 0 1 2
270 1 11.5827 20.5138 2.62515 -7.69518 1.53562 2.25647 1 1
271 1 13.3531 18.7477 2.68753 -2.93796 11.2762 7.43577 1 1
272 1 13.3714 20.5029 0.891429 0 0 0 1 2
273 1 14.2261 19.6216 1.79085 -1.50883 3.53202 -3.74951 1 1
274 1 16.0099 17.8177 1.78578 -2.9074 8.44203 -4.91652 1 1
275 1 14.2629 17.8286 0 0 0 0 1 3
276 1 16.0457 19.6114 0 0 0 0 1 3
277 1 15.1543 18.72 0.891429 0 0 0 1 2
278 1 15.1508 20.5047 2.67097 4.12548 -3.51035 0.855523 1 1
279 1 16.9268 18.7064 2.67762 0.0950901 -2.35153 -4.81185 1 1
280 1 16.9371 20.5029 0.891429 0 0 0 1 2
281 1 19.6139 21.3794 1.76544 -8.21068 -0.331774 0.953062 1 1
282 1 17.813 19.6335 1.76511 8.78388 -0.470518 -0.902266 1 1
283 1 17.8286 17.8286 0 0 0 0 1 3
284 1 19.6114 19.6114 0 0 0 0 1 3
285 1 18.72 18.72 0.891429 0 0 0 1 2
286 1 18.6992 20.4651 2.66603 6.10022 -8.39856 2.91876 1 1
287 1 20.5089 18.7307 2.70265 -5.66804 5.69565 4.022 1 1
288 1 20.5029 20.5029 0.891429 0 0 0 1 2
289 1 1.8159 1.75385 3.54932 -6.34345 -2.22055 6.54123 1 1
290 1 0.899287 0.892674 4.45921 -5.35765 3.52198 0.302083 1 1
291 1 2.70654 2.64418 4.44532 -4.06318 2.29376 4.61483 1 1
292 1 1.79514 0.0147339 5.36064 -2.71444 -1.14959 9.7668 1 1
293 1 1.80507 3.52643 5.41149 0.647355 5.33129 1.15922 1 1
294 1 0.0385243 1.80878 5.38582 4.14641 0.248487 4.17742 1 1
295 1 21.3612 21.3907 3.54602 4.69578 2.5243 2.7971 1 1
296 1 3.57661 1.78502 5.36783 -4.36847 -6.14149 4.50824 1 1
297 1 5.36218 1.74916 3.57245 -7.48681 4.72016 -2.09321 1 1
298 1 4.45428 0.85342 4.4479 -3.40194 12.2628 10.2724 1 1
299 1 6.19322 0.90046 6.2466 10.2498 0.666215 -8.85728 1 1
300 1 6.25332 2.68625 4.44845 0.540492 5.67177 6.05635 1 1
301 1 3.56414 21.413 3.57644 -0.849663 3.64823 3.21117 1 1
302 1 7.12348 21.3655 3.54194 8.01767 -1.8678 -4.47754 1 1
303 1 5.32526 21.3482 5.35218 -5.95169 10.0943 2.5832 1 1
304 1 7.10326 3.55899 3.57898 -2.62958 -6.49059 1.7278 1 1
305 1 7.09531 1.77717 5.3399 -3.15005 1.01538 2.40596 1 1
306 1 8.90453 1.7875 3.56082 2.74052 -1.87467 -8.34977 1 1
307 1 8.0124 0.896539 4.47412 10.7881 0.045577 1.85542 1 1
308 1 8.04448 2.66015 6.27896 7.24537 4.37065 -1.23552 1 1
309 1 9.80763 0.915491 6.29942 6.2074 -2.8377 -4.2492 1 1
310 1 9.7977 2.68033 4.42407 5.47733 -0.650963 -0.172811 1 1
311 1 10.7015 1.79159 5.37307 -1.01211 -0.430314 0.0277933 1 1
312 1 12.4364 1.78528 3.56696 0.368497 -5.21407 1.13827 1 1
313 1 11.5841 0.915123 4.49216 2.8583 3.12379 1.68299 1 1
314 1 11.5561 2.66026 6.28269 -7.85392 -3.48361 -1.25365 1 1
315 1 13.339 2.6848 4.46845 -0.911809 9.63889 -4.80455 1 1
316 1 13.3734 0.894045 6.23812 2.46923 0.712669 9.84136 1 1
317 1 12.4527 3.56982 5.35592 -4.28094 7.83818 -3.03589 1 1
318 1 14.2733 1.8009 5.35617 5.01811 -3.01127 0.00227139 1 1
319 1 12.4304 0.0280856 5.37316 -2.26817 -2.40897 -2.99937 1 1
320 1 14.2527 3.59313 3.5936 -2.20961 2.15015 -3.04689 1 1
321 1 16.0478 1.76143 3.56213 0.886451 1.48742 -0.973478 1 1
322 1 15.1653 0.874182 4.47513 3.11995 -5.51823 3.30145 1 1
323 1 15.1779 2.62908 6.24845 1.53938 -12.5879 -11.1097 1 1
324 1 16.9854 2.64767 4.42972 8.22924 5.88926 -6.10522 1 1
325 1 17.8614 1.78026 5.33404 -3.44192 -1.23229 0.388493 1 1
326 1 15.9938 -0.0148898 5.4135 -9.96737 -2.79837 -1.04631 1 1
327 1 19.6386 1.77665 3.59551 6.53247 0.567079 3.74493 1 1
328 1 18.7555 0.87144 4.47751 1.58098 4.53104 0.756109 1 1
329 1 20.5061 2.66561 4.48904 0.192487 -1.44701 8.28422 1 1
330 1 17.8365 21.3519 3.58047 -2.6639 -2.33158 4.41345 1 1
331 1 19.6034 21.3694 5.40314 7.50141 2.45241 5.53231 1 1
332 1 21.4022 3.5893 3.59909 6.12783 2.13352 3.23076 1 1
333 1 1.79355 5.34171 3.61943 -5.21969 -0.960446 2.62744 1 1
334 1 0.884476 4.43713 4.49107 3.7607 -9.72812 -1.15737 1 1
335 1 2.70117 4.45184 6.27986 -5.72225 2.76228 2.03526 1 1
336 1 2.68148 6.24943 4.4415 0.536938 4.28177 10.305 1 1
337 1 3.57271 3.51808 3.59543 5.62124 -9.05463 3.89268 1 1
338 1 0.0204305 5.36365 5.4078 -0.119848 -0.511352 5.79767 1 1
339 1 3.5409 5.30923 5.34523 6.62514 -0.513319 -8.87216 1 1
340 1 5.39135 3.54696 5.36559 -3.07934 0.199121 1.37392 1 1
341 1 5.35928 5.33258 3.54555 0.706692 4.22028 -1.7785 1 1
342 1 4.4358 4.39775 4.47479 -1.47604 2.09177 1.82532 1 1
343 1 4.47593 6.20647 6.29633 -4.78331 3.26136 0.98042 1 1
344 1 6.21845 6.22671 4.4521 -0.436492 -2.99541 -4.75097 1 1
345 1 7.12808 5.37048 5.35368 -1.54499 5.96261 5.00127 1 1
346 1 5.32689 7.10982 5.3954 0.445216 7.85982 -7.42608 1 1
347 1 6.24508 4.4727 6.20974 0.487894 -5.86923 -1.21304 1 1
348 1 8.92351 3.61249 5.37378 -0.353992 -2.22701 0.472321 1 1
349 1 10.6923 3.55951 3.5674 -4.9709 5.1518 2.52897 1 1
350 1 8.93392 5.33537 3.52054 -1.55148 1.29323 -3.95592 1 1
351 1 8.03203 4.49441 4.47501 7.1541 -3.68147 3.64454 1 1
352 1 7.98942 6.26146 6.27424 3.92396 4.44686 0.920104 1 1
353 1 9.80496 4.47589 6.25603 -2.7766 -6.86751 5.7498 1 1
354 1 9.79229 6.22035 4.46376 7.76197 5.94488 4.46154 1 1
355 1 10.6957 5.36139 5.34469 0.606522 4.53802 -1.66367 1 1
356 1 12.4821 5.30965 3.60448 -5.47223 4.2513 4.80048 1 1
357 1 11.571 4.41475 4.4583 5.01528 9.16723 -8.87038 1 1
358 1 13.3561 6.22552 4.4978 9.46106 5.16187 -4.15005 1 1
359 1 14.2501 5.31247 5.39902 -4.42949 3.09629 -8.77103 1 1
360 1 16.0492 3.5536 5.39184 4.76277 5.02286 -7.47788 1 1
361 1 17.8652 3.54348 3.55354 -5.10754 1.29827 3.34552 1 1
362 1 16.0467 5.3135 3.597 -0.376276 4.63238 3.18637 1 1
363 1 15.1497 4.4264 4.5023 5.37005 -9.67673 4.36691 1 1
364 1 16.9125 6.22348 4.50538 1.59514 -8.24334 -4.44523 1 1
365 1 16.9577 4.44917 6.27038 -1.00365 12.213 -9.06015 1 1
366 1 16.0274 7.08632 5.43342 -2.73546 -2.68997 2.3443 1 1
367 1 15.1445 6.2253 6.3209 -2.4066 6.30369 -2.91765 1 1
368 1 19.634 3.57192 5.3997 4.54845 4.0988 1.26202 1 1
369 1 17.8314 5.34604 5.37362 -9.46047 -0.679753 -5.10798 1 1
370 1 19.6112 5.34674 3.60866 5.28639 -0.370006 2.87305 1 1
371 1 18.7315 4.45285 4.47938 6.40541 3.88872 -8.93524 1 1
372 1 20.5085 4.44278 6.31995 0.423418 4.9439 0.0246086 1 1
373 1 20.5367 6.2261 4.48615 0.245801 0.396906 1.02234 1 1
374 1 19.6353 7.09811 5.37801 -4.43756 4.31553 -4.13755 1 1
375 1 0.00874145 7.1208 3.58881 -4.62322 2.80209 3.77152 1 1
376 1 1.77487 7.0965 5.37866 -1.44793 3.58543 -9.3245 1 1
377 1 1.73173 8.87739 3.64343 7.55182 2.31703 4.48495 1 1
378 1 0.843723 8.05221 4.51911 -4.52109 -7.0269 -2.07347 1 1
379 1 2.66888 7.95862 6.24686 -4.33841 1.42948 2.53405 1 1
380 1 0.888528 9.76334 6.31052 2.65491 -6.58936 -3.72314 1 1
381 1 2.61728 9.80247 4.52026 -3.02091 -4.93735 1.21647 1 1
382 1 21.3587 8.91721 5.40983 2.16052 0.424162 -8.09504 1 1
383 1 1.73642 10.6483 5.40258 4.79274 6.74282 -7.88051 1 1
384 1 3.56172 7.13595 3.52769 -4.60863 -5.98826 3.31002 1 1
385 1 7.11005 7.12113 3.58828 -6.88357 -3.03355 -0.137575 1 1
386 1 3.52149 10.6897 3.64488 -4.19219 1.61631 2.0412 1 1
387 1 3.52741 8.87448 5.37075 0.740899 6.08223 -6.71309 1 1
388 1 5.3676 8.95324 3.55661 -4.87694 1.94278 -3.07511 1 1
389 1 4.45807 8.00233 4.46023 -0.988118 -2.90528 13.4865 1 1
390 1 4.43343 9.7703 6.29658 -3.13101 -5.33276 -2.36545 1 1
391 1 6.17198 9.77257 4.49387 0.32816 -0.912428 2.43631 1 1
392 1 8.88878 7.11457 5.39991 -1.65708 8.96975 -2.65293 1 1
393 1 7.1241 8.93052 5.35752 6.37437 -2.97174 1.29188 1 1
394 1 8.93846 8.92589 3.60157 3.05229 0.434507 5.23407 1 1
395 1 8.00295 8.02658 4.48943 0.332308 2.70815 4.45328 1 1
396 1 9.77235 9.81508 4.4693 -5.06055 3.55833 10.6189 1 1
397 1 10.6677 8.93908 5.36759 5.35813 1.20426 3.67008 1 1
398 1 10.6953 10.6759 3.58816 -0.894537 3.41184 1.48313 1 1
399 1 9.84784 8.04171 6.29654 -0.254896 9.97757 -0.926214 1 1
400 1 12.4613 7.13163 5.41614 -4.76672 -2.85073 -4.33894 1 1
401 1 10.6768 7.13231 3.62074 -5.99669 -4.47279 -1.50184 1 1
402 1 12.49 8.96761 3.62669 -4.76741 0.865193 -0.198122 1 1
403 1 11.6007 8.03851 4.52431 5.0471 -0.404812 -0.083634 1 1
404 1 13.4003 9.78821 4.49556 -5.35351 4.27572 5.29486 1 1
405 1 14.25 7.12184 3.56636 2.71224 3.5728 -5.95282 1 1
406 1 14.2583 8.88325 5.40186 -4.45194 -2.20552 0.346735 1 1
407 1 17.8178 7.14577 3.57623 1.93384 1.18771 -7.08218 1 1
408 1 16.0761 8.90545 3.6205 -1.77633 -4.48376 -2.58711 1 1
409 1 15.1528 8.01496 4.52201 10.6268 4.70111 4.61133 1 1
410 1 16.9136 9.81546 4.50449 9.26889 8.27073 -6.90051 1 1
411 1 16.0266 10.7409 5.38392 -0.542735 -2.4515 -4.45376 1 1
412 1 16.9234 7.9784 6.30839 -0.302427 -12.2745 -0.587333 1 1
413 1 17.8233 8.86886 5.40845 2.5084 -0.267624 -0.492414 1 1
414 1 19.5971 8.87299 3.6149 1.53013 8.062 -3.89787 1 1
415 1 18.7075 8.0079 4.48598 -3.02396 -3.31343 4.90158 1 1
416 1 18.7253 9.81189 6.28292 3.8111 2.9751 -3.41906 1 1
417 1 20.5007 9.78309 4.49436 2.10874 -4.19939 7.6984 1 1
418 1 20.4801 8.01751 6.2838 -0.901907 1.03651 -8.01724 1 1
419 1 19.6009 10.6791 5.33999 1.89167 0.459583 -11.4818 1 1
420 1 21.361 10.6702 3.61042 3.02166 -0.624716 5.66336 1 1
421 1 1.77844 12.4619 3.61373 -1.52146 4.17439 3.79422 1 1
422 1 0.892465 11.5639 4.5263 3.65531 -0.44259 4.71462 1 1
423 1 2.63675 11.5722 6.25957 -8.49132 -3.02983 -17.1646 1 1
424 1 0.873717 13.4086 6.27204 -3.41713 2.52987 -2.62841 1 1
425 1 2.63755 13.3916 4.51409 1.54729 -10.9531 3.38064 1 1
426 1 21.4161 12.4639 5.41456 5.17264 5.58976 -8.64849 1 1
427 1 5.34771 10.7009 5.38014 -0.555245 -0.145821 1.70479 1 1
428 1 3.55157 14.2496 3.58409 -0.310699 -1.60454 -7.12898 1 1
429 1 3.55154 12.4826 5.36042 2.93733 -0.541026 2.76475 1 1
430 1 5.33735 12.465 3.5572 5.94473 -0.971542 -6.17441 1 1
431 1 4.4212 11.5915 4.49045 9.41089 2.23838 -1.35199 1 1
432 1 6.22331 13.3738 4.47876 -3.3188 -10.177 2.55987 1 1
433 1 7.15285 14.3081 3.61171 -3.42161 -6.67066 -3.92535 1 1
434 1 6.22796 11.5764 6.28113 -5.03648 3.79379 -0.156891 1 1
435 1 7.10465 10.6586 3.57707 -0.721001 4.53732 0.36752 1 1
436 1 7.11794 12.4688 5.37849 -1.18561 1.41824 2.71022 1 1
437 1 8.89716 10.7023 5.35722 2.90487 0.399703 5.51508 1 1
438 1 8.89913 12.5429 3.56868 6.34439 0.668503 4.28816 1 1
439 1 7.99563 11.6189 4.48905 -2.67569 -8.19465 11.2334 1 1
440 1 9.84378 11.5992 6.27302 -3.07871 -8.52672 -4.00471 1 1
441 1 8.03337 13.3623 6.2807 -0.104181 1.15114 2.70995 1 1
442 1 9.76617 13.377 4.44658 -3.29841 3.47062 -2.78957 1 1
443 1 10.7121 14.2761 3.5753 -3.21769 0.205965 -3.05597 1 1
444 1 12.4819 10.7433 5.38252 -1.7552 2.11978 3.42701 1 1
445 1 10.6857 12.4782 5.34175 1.80797 -3.91028 4.6981 1 1
446 1 12.4782 12.4711 3.60766 2.55753 -0.460038 3.0779 1 1
447 1 11.5807 11.5925 4.48792 -3.34845 9.45716 -4.79779 1 1
448 1 13.3791 11.5913 6.27813 5.31971 -3.89811 0.660866 1 1
449 1 11.6138 13.3446 6.26807 -8.16075 -10.1817 -6.80878 1 1
450 1 13.3607 13.4137 4.44935 -10.2979 2.26128 1.29887 1 1
451 1 14.3122 10.6697 3.59506 -3.96499 -5.15332 -5.92131 1 1
452 1 14.2545 12.477 5.36799 4.29704 4.36822 0.27226 1 1
453 1 16.0104 12.465 3.55961 11.1629 -0.615539 3.45764 1 1
454 1 15.145 11.5773 4.42821 -0.00428207 -0.928277 -0.305749 1 1
455 1 16.9376 11.5875 6.26635 2.99442 4.82109 -4.47104 1 1
456 1 16.9074 13.3662 4.45767 3.25492 -4.15456 2.91506 1 1
457 1 17.8153 12.4735 5.37837 -1.41544 -0.285326 0.419601 1 1
458 1 15.1595 13.3382 6.28163 4.88412 -0.947933 2.23768 1 1
459 1 17.8405 10.7062 3.59239 5.72921 4.55836 -1.23291 1 1
460 1 19.618 12.4679 3.63744 -1.1727 -0.158914 3.41318 1 1
461 1 18.7497 11.5954 4.50467 -2.70388 4.95289 2.55544 1 1
462 1 18.7035 13.3785 6.27375 -0.319203 4.87449 5.64234 1 1
463 1 20.4935 13.3846 4.50402 -7.50105 4.6319 3.37535 1 1
464 1 20.4906 11.5709 6.26683 -3.52396 -4.82027 -3.70239 1 1
465 1 1.72959 14.2733 5.38996 3.32917 -3.96422 4.3099 1 1
466 1 1.80758 16.0354 3.59921 -1.31931 -6.30863 8.56266 1 1
467 1 0.942713 15.1885 4.49162 -4.44958 5.86504 10.4968 1 1
468 1 2.63905 15.1413 6.28011 4.35238 -2.93157 2.02773 1 1
469 1 2.68852 16.948 4.43672 -0.316346 0.422953 -4.69809 1 1
470 1 21.3863 16.0874 5.37733 8.15603 -8.50993 1.2875 1 1
471 1 21.384 14.2871 3.61896 1.04145 2.29236 -3.78376 1 1
472 1 1.82378 17.8286 5.33704 2.58792 1.37091 -1.11666 1 1
473 1 5.33095 14.2702 5.35104 -3.09132 4.6513 1.0716 1 1
474 1 3.55099 16.0529 5.40024 -2.43878 1.20635 1.39817 1 1
475 1 5.34434 16.0572 3.54164 -5.1313 1.01778 2.99644 1 1
476 1 4.47571 15.158 4.45708 -4.58145 -0.538426 -8.01862 1 1
477 1 4.42273 16.9609 6.24793 -0.576955 -1.84688 1.46444 1 1
478 1 6.24457 15.1257 6.23321 -7.84047 7.28502 -2.16471 1 1
479 1 6.18238 16.9435 4.45478 -4.50117 2.85206 -3.56423 1 1
480 1 7.11611 16.0537 5.34287 1.88014 -14.7414 -1.07227 1 1
481 1 8.89913 14.2551 5.40299 1.60919 6.90667 0.669728 1 1
482 1 8.89457 16.0276 3.5992 2.9694 1.56547 6.29329 1 1
483 1 8.04052 15.1865 4.46338 9.52167 -1.53416 -1.79251 1 1
484 1 7.99819 16.9301 6.24655 3.22134 -3.02335 -7.41232 1 1
485 1 9.82771 15.1639 6.23627 5.84045 -2.04515 8.30239 1 1
486 1 9.82108 16.9323 4.43985 -5.73791 -7.08062 2.59273 1 1
487 1 10.6747 16.0501 5.34863 2.10004 7.11094 -2.86962 1 1
488 1 8.881 17.8253 5.31833 0.4593 -8.49526 -6.71129 1 1
489 1 10.717 17.803 3.55066 -5.66835 3.82012 6.14578 1 1
490 1 12.4852 14.2423 5.38575 6.31341 2.76428 -0.00465498 1 1
491 1 12.4399 16.0754 3.60371 2.44949 2.66146 -3.13204 1 1
492 1 11.5837 15.1686 4.48071 2.85534 -5.03321 -2.2971 1 1
493 1 11.622 16.8934 6.29326 -3.49726 4.09843 -6.1246 1 1
494 1 13.3644 16.9527 4.45563 0.222016 -8.35641 1.22054 1 1
495 1 13.3428 15.1318 6.28741 5.91761 -4.88594 -3.33641 1 1
496 1 12.5043 17.8791 5.41293 6.79107 -5.19906 0.683609 1 1
497 1 14.2327 14.2589 3.53265 -0.365043 -5.2291 2.57946 1 1
498 1 16.0254 14.2199 5.37949 -9.48615 5.5638 1.49892 1 1
499 1 17.782 14.2811 3.59867 3.50283 8.45518 1.86978 1 1
500 1 14.2401 16.0103 5.40054 1.61243 -6.28281 -10.0509 1 1
501 1 14.3055 17.8246 3.5655 4.18336 -4.35231 8.09291 1 1
502 1 16.0557 16.051 3.55467 1.45873 -4.37385 -1.6114 1 1
503 1 15.1161 15.1237 4.45101 -5.83858 4.09006 -5.6619 1 1
504 1 16.9114 16.9535 4.41774 -3.8018 -5.63729 -0.602617 1 1
505 1 16.9238 15.1728 6.28078 3.77826 4.45865 3.94331 1 1
506 1 17.8411 16.0435 5.37492 6.37043 7.29846 1.25966 1 1
507 1 19.6181 14.305 5.37337 3.85765 -4.5371 -11.1784 1 1
508 1 19.5955 16.0323 3.62019 -3.67887 3.79453 -2.82376 1 1
509 1 18.6733 15.1745 4.46625 -3.45251 -2.22436 2.10929 1 1
510 1 20.5161 16.9386 4.46367 4.37033 0.621404 3.9334 1 1
511 1 19.6294 17.826 5.36662 2.59983 2.23815 -2.62708 1 1
512 1 20.5004 15.2081 6.269 -2.65931 0.89723 -4.21112 1 1
513 1 1.76689 19.5967 3.60351 -7.71569 -6.81639 1.83741 1 1
514 1 0.91816 18.7366 4.48712 -0.0220658 -7.57915 4.31859 1 1
515 1 0.835104 20.531 6.21611 -2.07474 9.69111 -7.44522 1 1
516 1 2.6659 20.4787 4.4339 4.12167 2.26105 3.74781 1 1
517 1 -0.0273049 17.8572 3.58765 -3.28097 9.1654 -2.46101 1 1
518 1 21.3221 19.6597 5.37027 -4.70193 -4.95855 -2.3074 1 1
519 1 2.63824 18.706 6.25718 -1.194 6.92475 -4.37205 1 1
520 1 5.31618 17.8141 5.30324 -9.58551 -6.28604 -1.57666 1 1
521 1 3.58846 17.8506 3.53281 2.07154 1.82076 6.54798 1 1
522 1 3.54228 19.5611 5.40308 -0.906644 7.86251 -2.87739 1 1
523 1 5.33665 19.6176 3.54997 2.52253 -1.92033 -2.23868 1 1
524 1 4.40868 18.7473 4.46348 -2.46846 -0.671719 -1.85493 1 1
525 1 4.39432 20.506 6.26934 -1.98496 2.78462 2.48802 1 1
526 1 6.23477 18.7276 6.23004 -4.82208 4.47962 2.74352 1 1
527 1 6.19141 20.458 4.44454 0.306512 3.57903 0.143583 1 1
528 1 7.09613 17.8231 3.53003 -5.40949 1.89623 4.38472 1 1
529 1 7.15896 19.5977 5.38095 -1.86265 -3.59148 -1.92047 1 1
530 1 8.92786 0.0271814 5.37701 -5.60734 0.990902 4.26595 1 1
531 1 8.91366 19.6251 3.54999 3.53731 -3.83962 7.17808 1 1
532 1 8.00663 18.7134 4.43562 -1.72729 -6.01362 -3.22298 1 1
533 1 8.02359 20.542 6.27298 -10.2078 7.90053 0.600981 1 1
534 1 9.81942 18.6638 6.2551 3.44347 3.61206 -1.03182 1 1
535 1 9.78459 20.5259 4.46402 -1.9551 -3.23241 -8.04423 1 1
536 1 10.6919 19.6069 5.33533 -5.57996 2.01682 0.238754 1 1
537 1 10.6828 0.0255018 3.5891 5.35966 1.80961 -6.34382 1 1
538 1 12.488 19.6473 3.5586 0.0285269 -8.47808 -3.54575 1 1
539 1 11.5916 18.6925 4.45887 -1.19584 -0.11678 -0.515029 1 1
540 1 13.337 18.7312 6.27024 6.73868 -5.09259 -10.8061 1 1
541 1 13.3995 20.5326 4.43249 5.73656 -2.42497 -1.08041 1 1
542 1 16.0423 17.8425 5.39984 3.9883 -9.1286 -0.970771 1 1
543 1 14.3033 0.0112773 3.54766 -11.486 -6.14338 -0.0747479 1 1
544 1 14.2462 19.5996 5.36209 0.087444 -7.56744 -3.82246 1 1
545 1 16.0104 19.6198 3.59103 8.6208 -6.80302 1.57911 1 1
546 1 15.1569 18.7294 4.49902 1.89745 -5.94109 -2.38321 1 1
547 1 16.9957 18.7174 6.28598 7.52281 3.0593 -4.45395 1 1
548 1 16.9208 20.4792 4.49993 0.675102 2.68181 4.18979 1 1
549 1 17.8501 19.6134 5.37288 -5.24707 -1.39638 4.78574 1 1
550 1 17.8066 17.8015 3.58348 1.89852 -2.64953 3.18702 1 1
551 1 19.5927 19.5806 3.56214 -3.71136 -6.42921 7.24356 1 1
552 1 18.7448 18.7075 4.47427 -2.10336 4.28978 8.20389 1 1
553 1 18.738 20.5075 6.2609 -0.324033 4.91935 4.80638 1 1
554 1 20.4931 18.7078 6.25212 1.45222 -6.78613 -0.936106 1 1
555 1 20.4769 20.475 4.40781 -0.88682 3.33309 7.48487 1 1
556 1 2.68715 0.887803 6.2348 -7.67444 4.06188 0.677401 1 1
557 1 0.937618 2.66618 6.31744 5.80246 3.96504 4.17698 1 1