ITEM: TIMESTEP
2150
ITEM: NUMBER OF ATOMS
2952
ITEM: BOX BOUNDS pp pp mm
0.0000000000000000e+00 2.1394294200000001e+01
0.0000000000000000e+00 2.1394294200000001e+01
-4.4571446250000002e-01 5.3485735500000004e+01
ITEM: ATOMS id type x y z vx vy vz v_is_diamond c_structure_type
1 1 0 0 0 0 0 0 1 3
2 1 1.78286 1.78286 0 0 0 0 1 3
3 1 0.891429 0.891429 0.891429 0 0 0 1 2
4 1 0.871276 2.68316 2.67081 -2.59846 1.63461 7.32659 1 1
5 1 2.64351 0.948643 2.71885 6.47455 -5.75605 0.945677 1 1
6 1 2.67429 2.67429 0.891429 0 0 0 1 2
7 1 21.3876 1.7408 1.79032 5.06869 -1.83699 6.8449 1 1
8 1 1.79145 0.0399491 1.82305 -0.108252 3.96957 -2.48241 1 1
9 1 1.74893 3.55086 1.7931 1.69994 -0.63873 3.51977 1 1
10 1 3.57377 1.79729 1.81041 1.25409 -0.680375 1.56623 1 1
11 1 3.56572 0 0 0 0 0 1 3
12 1 5.34857 1.78286 0 0 0 0 1 3
13 1 4.45714 0.891429 0.891429 0 0 0 1 2
14 1 4.45061 2.6967 2.71786 2.91944 -1.10212 1.31695 1 1
15 1 6.22161 0.899772 2.69488 -2.04148 4.25848 1.00501 1 1
16 1 6.24 2.67429 0.891429 0 0 0 1 2
17 1 7.15753 1.7751 1.81184 1.24307 5.76782 -1.12639 1 1
18 1 7.13143 0 0 0 0 0 1 3
19 1 8.02286 0.891429 0.891429 0 0 0 1 2
20 1 8.04446 2.67281 2.70132 -4.08499 3.61257 5.28964 1 1
21 1 8.91429 1.78286 0 0 0 0 1 3
22 1 9.82244 0.899576 2.69997 0.0620563 -3.62471 6.41519 1 1
23 1 9.80572 2.67429 0.891429 0 0 0 1 2
24 1 8.92265 21.378 1.80445 -1.85929 1.9183 12.4189 1 1
25 1 10.7053 1.8005 1.77521 -3.48469 -0.228323 -4.794 1 1
26 1 10.6971 0 0 0 0 0 1 3
27 1 12.48 1.78286 0 0 0 0 1 3
28 1 11.5886 0.891429 0.891429 0 0 0 1 2
29 1 11.6258 2.70748 2.66877 2.2562 1.81176 0.225756 1 1
30 1 13.388 0.888964 2.70451 2.07438 2.3727 1.89718 1 1
31 1 13.3714 2.67429 0.891429 0 0 0 1 2
32 1 14.2743 1.74059 1.76932 -2.88933 -3.99452 8.64709 1 1
33 1 14.2629 0 0 0 0 0 1 3
34 1 16.0457 1.78286 0 0 0 0 1 3
35 1 15.1543 0.891429 0.891429 0 0 0 1 2
36 1 15.1767 2.66345 2.69635 -4.75849 -1.8185 4.37639 1 1
37 1 16.9401 0.935046 2.69725 -2.31925 -6.1031 -3.12711 1 1
38 1 16.9371 2.67429 0.891429 0 0 0 1 2
39 1 16.0775 21.3753 1.79622 2.05402 5.15921 -1.6459 1 1
40 1 17.8982 1.82162 1.8232 -3.1413 7.63429 -0.896505 1 1
41 1 17.8286 0 0 0 0 0 1 3
42 1 19.6114 1.78286 0 0 0 0 1 3
43 1 18.72 0.891429 0.891429 0 0 0 1 2
44 1 18.7673 2.71887 2.69796 2.32215 0.306073 -3.66142 1 1
45 1 20.4676 0.901772 2.73124 -0.0782423 2.54776 -2.114 1 1
46 1 20.5029 2.67429 0.891429 0 0 0 1 2
47 1 0 3.56572 0 0 0 0 1 3
48 1 1.78286 5.34857 0 0 0 0 1 3
49 1 0.891429 4.45714 0.891429 0 0 0 1 2
50 1 0.898911 6.18462 2.66628 4.41465 4.21629 -7.6911 1 1
51 1 2.61205 4.49092 2.65806 2.29511 7.44868 -2.60362 1 1
52 1 2.67429 6.24 0.891429 0 0 0 1 2
53 1 3.54537 5.34979 1.7648 -7.69687 -3.15501 8.85815 1 1
54 1 5.36505 3.57049 1.79885 -1.68985 9.67925 3.74571 1 1
55 1 3.56572 3.56572 0 0 0 0 1 3
56 1 5.34857 5.34857 0 0 0 0 1 3
57 1 4.45714 4.45714 0.891429 0 0 0 1 2
58 1 4.43028 6.21905 2.72885 -0.304788 -1.15292 -9.23299 1 1
59 1 6.27822 4.46024 2.709 4.95662 1.29391 -0.0761797 1 1
60 1 6.24 6.24 0.891429 0 0 0 1 2
61 1 5.30858 7.11399 1.83424 5.76186 1.18899 6.04608 1 1
62 1 7.14339 5.3847 1.80643 -1.64709 -0.888413 -0.75853 1 1
63 1 7.13143 3.56572 0 0 0 0 1 3
64 1 8.89426 3.57203 1.78417 4.3373 5.7403 3.74136 1 1
65 1 8.02286 4.45714 0.891429 0 0 0 1 2
66 1 8.03011 6.24259 2.71234 0.631544 7.07035 -2.53228 1 1
67 1 8.91429 5.34857 0 0 0 0 1 3
68 1 9.79756 4.49661 2.74328 -0.158302 -2.49549 7.92419 1 1
69 1 9.80572 6.24 0.891429 0 0 0 1 2
70 1 10.6613 5.39176 1.81307 -6.65659 -1.0135 -7.03848 1 1
71 1 12.4913 3.58264 1.77764 -2.92173 5.38505 9.01036 1 1
72 1 10.6971 3.56572 0 0 0 0 1 3
73 1 12.48 5.34857 0 0 0 0 1 3
74 1 11.5886 4.45714 0.891429 0 0 0 1 2
75 1 11.5691 6.2921 2.63731 3.78326 -1.20751 6.31401 1 1
76 1 13.3655 4.45783 2.67173 1.61666 -9.87236 -1.98808 1 1
77 1 13.3714 6.24 0.891429 0 0 0 1 2
78 1 14.2874 5.36114 1.7745 -7.60113 -1.14588 -4.24212 1 1
79 1 16.0768 3.56027 1.76928 5.62423 -2.58213 -2.91009 1 1
80 1 14.2629 3.56572 0 0 0 0 1 3
81 1 16.0457 5.34857 0 0 0 0 1 3
82 1 15.1543 4.45714 0.891429 0 0 0 1 2
83 1 15.1837 6.26438 2.68494 0.458557 -0.864019 -2.67451 1 1
84 1 16.9451 4.50144 2.63738 5.454 -2.07946 -1.78834 1 1
85 1 16.9371 6.24 0.891429 0 0 0 1 2
86 1 17.8957 5.34751 1.78256 -6.04131 -9.72049 -3.05152 1 1
87 1 19.614 3.5919 1.80034 -6.28589 -4.115 -6.02153 1 1
88 1 21.3738 5.29434 1.75775 5.57232 -0.369256 -7.543 1 1
89 1 17.8286 3.56572 0 0 0 0 1 3
90 1 19.6114 5.34857 0 0 0 0 1 3
91 1 18.72 4.45714 0.891429 0 0 0 1 2
92 1 18.7436 6.28749 2.67489 -0.00406719 -2.85228 3.44754 1 1
93 1 20.5291 4.42765 2.6961 -9.61117 7.82658 -9.13491 1 1
94 1 20.5029 6.24 0.891429 0 0 0 1 2
95 1 19.6169 7.14816 1.78671 0.844327 -1.83474 0.302007 1 1
96 1 1.77042 7.09599 1.75262 6.36319 -4.4967 -0.652953 1 1
97 1 0 7.13143 0 0 0 0 1 3
98 1 0.891429 8.02286 0.891429 0 0 0 1 2
99 1 2.64668 7.9976 2.67623 -0.734344 0.216772 0.407679 1 1
100 1 1.78286 8.91429 0 0 0 0 1 3
101 1 0.926651 9.82529 2.65491 -4.58839 1.21378 -8.07108 1 1
102 1 2.67429 9.80572 0.891429 0 0 0 1 2
103 1 1.79571 10.7167 1.74301 3.36641 -2.70277 -3.35857 1 1
104 1 3.57147 8.90978 1.80078 4.37875 -3.22013 -5.28363 1 1
105 1 3.56572 7.13143 0 0 0 0 1 3
106 1 4.45714 8.02286 0.891429 0 0 0 1 2
107 1 6.21639 8.01148 2.68332 14.6939 4.04726 1.26311 1 1
108 1 5.34857 8.91429 0 0 0 0 1 3
109 1 4.46973 9.74594 2.68211 3.5678 3.04461 -4.38444 1 1
110 1 6.24 9.80572 0.891429 0 0 0 1 2
111 1 7.10522 8.93543 1.79851 -7.11869 -0.0871584 1.78944 1 1
112 1 8.90438 7.15074 1.81272 5.72367 -1.59799 1.03069 1 1
113 1 7.13143 7.13143 0 0 0 0 1 3
114 1 8.02286 8.02286 0.891429 0 0 0 1 2
115 1 9.8092 8.04575 2.68227 -4.63018 -0.24109 0.665377 1 1
116 1 7.98995 9.81788 2.7019 -1.97703 -4.55399 -9.38846 1 1
117 1 8.91429 8.91429 0 0 0 0 1 3
118 1 9.80572 9.80572 0.891429 0 0 0 1 2
119 1 10.7002 8.89073 1.80516 6.78628 -1.87413 -5.95357 1 1
120 1 12.4586 7.11646 1.76787 1.0035 3.54622 -6.82767 1 1
121 1 10.6971 7.13143 0 0 0 0 1 3
122 1 11.5886 8.02286 0.891429 0 0 0 1 2
123 1 13.3416 8.01242 2.68566 -11.2337 -0.701608 -6.15144 1 1
124 1 12.48 8.91429 0 0 0 0 1 3
125 1 11.5778 9.82763 2.67166 8.88792 -4.74922 -4.87625 1 1
126 1 13.3714 9.80572 0.891429 0 0 0 1 2
127 1 12.4792 10.7062 1.79225 7.08386 1.80154 -0.514758 1 1
128 1 16.0449 7.13621 1.80112 4.49184 5.40738 4.06649 1 1
129 1 14.2413 8.93449 1.77323 7.75846 10.2865 1.90381 1 1
130 1 14.2629 7.13143 0 0 0 0 1 3
131 1 15.1543 8.02286 0.891429 0 0 0 1 2
132 1 16.9582 8.02129 2.66724 -6.82128 3.21951 0.461573 1 1
133 1 16.0457 8.91429 0 0 0 0 1 3
134 1 15.13 9.87305 2.67911 4.37584 4.67645 0.0355671 1 1
135 1 16.9371 9.80572 0.891429 0 0 0 1 2
136 1 16.0393 10.7282 1.80307 -8.47289 -1.49898 -3.12378 1 1
137 1 17.8289 8.91405 1.7808 -0.26956 0.39706 -9.68398 1 1
138 1 21.3867 8.91071 1.81723 -5.08887 4.37638 -9.94181 1 1
139 1 17.8286 7.13143 0 0 0 0 1 3
140 1 18.72 8.02286 0.891429 0 0 0 1 2
141 1 20.48 8.05083 2.67992 3.32665 -7.4204 1.86696 1 1
142 1 19.6114 8.91429 0 0 0 0 1 3
143 1 18.7608 9.81465 2.65873 -2.14996 -2.19538 -2.59397 1 1
144 1 20.5029 9.80572 0.891429 0 0 0 1 2
145 1 0 10.6971 0 0 0 0 1 3
146 1 1.78286 12.48 0 0 0 0 1 3
147 1 0.891429 11.5886 0.891429 0 0 0 1 2
148 1 2.68352 11.5857 2.63421 6.61526 1.00118 -2.20128 1 1
149 1 0.882159 13.379 2.66507 2.29233 -4.44629 -0.549603 1 1
150 1 2.67429 13.3714 0.891429 0 0 0 1 2
151 1 21.3869 12.497 1.78042 8.503 -3.26121 0.876596 1 1
152 1 5.34273 10.687 1.7793 -1.22699 -7.8017 -1.65303 1 1
153 1 3.55604 12.4961 1.76364 6.37484 2.63122 -3.92033 1 1
154 1 3.56572 10.6971 0 0 0 0 1 3
155 1 5.34857 12.48 0 0 0 0 1 3
156 1 4.45714 11.5886 0.891429 0 0 0 1 2
157 1 6.25107 11.5522 2.72157 3.26298 -2.06058 -2.98998 1 1
158 1 4.43267 13.3483 2.72034 1.93568 4.44742 3.50029 1 1
159 1 6.24 13.3714 0.891429 0 0 0 1 2
160 1 5.366 14.2641 1.77331 1.17308 -1.2909 0.273966 1 1
161 1 8.90147 10.7042 1.78597 -7.04477 4.33737 -2.99579 1 1
162 1 7.12235 12.4627 1.76859 -7.98554 3.62904 2.21086 1 1
163 1 7.13143 10.6971 0 0 0 0 1 3
164 1 8.02286 11.5886 0.891429 0 0 0 1 2
165 1 8.91429 12.48 0 0 0 0 1 3
166 1 9.8032 11.5486 2.72029 -0.50692 -1.89287 2.02649 1 1
167 1 8.00804 13.3047 2.69478 -2.20931 4.57059 -1.15702 1 1
168 1 9.80572 13.3714 0.891429 0 0 0 1 2
169 1 10.6555 12.4903 1.79414 14.8592 2.0906 5.93849 1 1
170 1 10.6971 10.6971 0 0 0 0 1 3
171 1 12.48 12.48 0 0 0 0 1 3
172 1 11.5886 11.5886 0.891429 0 0 0 1 2
173 1 13.3636 11.6062 2.65481 2.76951 -3.82643 -0.0319047 1 1
174 1 11.5618 13.3785 2.65515 -3.85516 5.83207 5.20791 1 1
175 1 13.3714 13.3714 0.891429 0 0 0 1 2
176 1 12.4695 14.2863 1.75969 6.43662 -5.43779 1.21681 1 1
177 1 14.2917 12.4762 1.79122 0.34339 0.28453 -4.01671 1 1
178 1 14.2629 10.6971 0 0 0 0 1 3
179 1 16.0457 12.48 0 0 0 0 1 3
180 1 15.1543 11.5886 0.891429 0 0 0 1 2
181 1 16.9569 11.6289 2.68789 -4.57852 -2.08132 -3.6679 1 1
182 1 15.1538 13.3593 2.6963 1.97723 1.34448 -9.13109 1 1
183 1 16.9371 13.3714 0.891429 0 0 0 1 2
184 1 17.8548 12.4759 1.73944 -5.2284 1.85034 6.92981 1 1
185 1 19.6331 10.7319 1.77545 -9.35662 -3.84546 0.585893 1 1
186 1 17.8286 10.6971 0 0 0 0 1 3
187 1 19.6114 12.48 0 0 0 0 1 3
188 1 18.72 11.5886 0.891429 0 0 0 1 2
189 1 20.5244 11.6008 2.62828 0.442066 1.27724 -12.2423 1 1
190 1 18.7327 13.403 2.63365 -3.71618 -5.3717 0.26514 1 1
191 1 20.5029 13.3714 0.891429 0 0 0 1 2
192 1 19.6071 14.2897 1.78049 6.37974 3.66155 -2.05413 1 1
193 1 1.77113 14.2703 1.77511 -1.73028 1.34359 7.92509 1 1
194 1 0 14.2629 0 0 0 0 1 3
195 1 1.78286 16.0457 0 0 0 0 1 3
196 1 0.891429 15.1543 0.891429 0 0 0 1 2
197 1 0.883003 16.9277 2.68239 -9.90246 -2.88797 2.70448 1 1
198 1 2.66802 15.1846 2.65048 1.0713 -2.61303 -0.64325 1 1
199 1 2.67429 16.9371 0.891429 0 0 0 1 2
200 1 21.3917 16.0682 1.82222 -1.13618 -8.42318 -1.2034 1 1
201 1 3.54509 16.0039 1.78456 -2.91655 -3.08205 -1.73491 1 1
202 1 3.56572 14.2629 0 0 0 0 1 3
203 1 5.34857 16.0457 0 0 0 0 1 3
204 1 4.45714 15.1543 0.891429 0 0 0 1 2
205 1 4.3907 16.9065 2.717 1.81257 -0.0634866 6.55761 1 1
206 1 6.23182 15.1355 2.66338 6.06978 0.286832 -0.642613 1 1
207 1 6.24 16.9371 0.891429 0 0 0 1 2
208 1 7.11009 16.0429 1.81162 5.87205 -2.21241 -4.77541 1 1
209 1 5.29143 17.8005 1.83172 -2.44241 -0.999982 8.51386 1 1
210 1 8.92249 14.2271 1.77143 0.118623 4.19722 -1.72014 1 1
211 1 7.13143 14.2629 0 0 0 0 1 3
212 1 8.02286 15.1543 0.891429 0 0 0 1 2
213 1 8.05232 16.949 2.67195 3.7486 -1.71608 -2.28413 1 1
214 1 8.91429 16.0457 0 0 0 0 1 3
215 1 9.79659 15.1301 2.66517 3.82749 -2.35537 0.1187 1 1
216 1 9.80572 16.9371 0.891429 0 0 0 1 2
217 1 8.89805 17.7856 1.77556 0.0336215 -2.3101 0.408505 1 1
218 1 10.7011 16.0729 1.7937 -5.52114 -0.659029 -3.60467 1 1
219 1 10.6971 14.2629 0 0 0 0 1 3
220 1 12.48 16.0457 0 0 0 0 1 3
221 1 11.5886 15.1543 0.891429 0 0 0 1 2
222 1 11.5861 16.9221 2.67317 -1.35892 -6.32706 -5.64844 1 1
223 1 13.4094 15.1333 2.66586 1.71007 4.51362 6.41778 1 1
224 1 13.3714 16.9371 0.891429 0 0 0 1 2
225 1 12.4686 17.7946 1.77256 7.82463 -3.34861 -6.37317 1 1
226 1 16.0707 14.2316 1.78279 -3.37169 -7.59961 -1.63162 1 1
227 1 14.3001 16.0399 1.80237 -4.00511 -5.34085 3.92208 1 1
228 1 14.2629 14.2629 0 0 0 0 1 3
229 1 16.0457 16.0457 0 0 0 0 1 3
230 1 15.1543 15.1543 0.891429 0 0 0 1 2
231 1 15.1762 16.921 2.68274 6.40629 -2.7208 -0.993505 1 1
232 1 16.9528 15.1859 2.68777 4.55684 -0.0729142 3.74062 1 1
233 1 16.9371 16.9371 0.891429 0 0 0 1 2
234 1 17.834 16.0792 1.79707 4.57006 -9.18663 -5.31818 1 1
235 1 17.8286 14.2629 0 0 0 0 1 3
236 1 19.6114 16.0457 0 0 0 0 1 3
237 1 18.72 15.1543 0.891429 0 0 0 1 2
238 1 18.7415 16.9766 2.6814 4.03627 -1.79796 4.32238 1 1
239 1 20.487 15.1471 2.66562 -4.8319 -0.913181 -3.32321 1 1
240 1 20.5029 16.9371 0.891429 0 0 0 1 2
241 1 19.5983 17.8374 1.77146 7.13695 2.23638 3.04966 1 1
242 1 1.73471 17.8328 1.8196 3.42065 5.01721 -5.85679 1 1
243 1 0 17.8286 0 0 0 0 1 3
244 1 1.78286 19.6114 0 0 0 0 1 3
245 1 0.891429 18.72 0.891429 0 0 0 1 2
246 1 0.878861 20.5133 2.70063 -2.41461 1.13473 -0.742531 1 1
247 1 2.64757 18.7285 2.69891 -0.64051 0.567776 6.7159 1 1
248 1 2.67429 20.5029 0.891429 0 0 0 1 2
249 1 3.52438 19.6056 1.8221 7.81986 4.43403 -3.5949 1 1
250 1 0.03971 19.6024 1.79287 5.90813 -4.31255 2.26174 1 1
251 1 5.32715 21.342 1.79754 4.83292 -3.06597 -4.49464 1 1
252 1 3.56572 17.8286 0 0 0 0 1 3
253 1 5.34857 19.6114 0 0 0 0 1 3
254 1 4.45714 18.72 0.891429 0 0 0 1 2
255 1 4.41702 20.5093 2.72946 -6.14874 7.51171 0.130043 1 1
256 1 6.20745 18.6885 2.71681 -0.26031 -4.77235 4.24283 1 1
257 1 6.24 20.5029 0.891429 0 0 0 1 2
258 1 7.12434 19.6126 1.81602 1.08332 1.88744 1.7816 1 1
259 1 7.13143 17.8286 0 0 0 0 1 3
260 1 8.02286 18.72 0.891429 0 0 0 1 2
261 1 7.99262 20.5584 2.72325 -0.355971 -1.60843 0.178458 1 1
262 1 8.91429 19.6114 0 0 0 0 1 3
263 1 9.78252 18.7022 2.66421 0.305626 1.32987 0.0781769 1 1
264 1 9.80572 20.5029 0.891429 0 0 0 1 2
265 1 10.7147 19.5971 1.81269 2.07269 -5.32628 -3.71053 1 1
266 1 12.4594 21.3757 1.81769 0.741971 1.25582 -8.62782 1 1
267 1 10.6971 17.8286 0 0 0 0 1 3
268 1 12.48 19.6114 0 0 0 0 1 3
269 1 11.5886 18.72 0.891429 0 0 0 1 2
270 1 11.5915 20.4529 2.69097 -9.71521 -0.556259 7.2426 1 1
271 1 13.332 18.6885 2.68251 -7.48191 2.94743 0.719432 1 1
272 1 13.3714 20.5029 0.891429 0 0 0 1 2
273 1 14.2587 19.5663 1.81708 -10.727 2.53253 0.0285412 1 1
274 1 16.0606 17.7951 1.82354 -3.06952 3.20695 -1.99493 1 1
275 1 14.2629 17.8286 0 0 0 0 1 3
276 1 16.0457 19.6114 0 0 0 0 1 3
277 1 15.1543 18.72 0.891429 0 0 0 1 2
278 1 15.1828 20.4582 2.70759 2.07112 -5.19335 -4.9278 1 1
279 1 16.9426 18.6824 2.71844 -7.7928 2.49313 2.25767 1 1
280 1 16.9371 20.5029 0.891429 0 0 0 1 2
281 1 19.6299 21.3797 1.80338 -6.38692 -2.18703 -5.91279 1 1
282 1 17.8196 19.6573 1.80967 1.26681 5.5109 -2.16397 1 1
283 1 17.8286 17.8286 0 0 0 0 1 3
284 1 19.6114 19.6114 0 0 0 0 1 3
285 1 18.72 18.72 0.891429 0 0 0 1 2
286 1 18.7172 20.5503 2.70331 5.926 -2.02996 -5.40193 1 1
287 1 20.521 18.7214 2.68098 4.71197 5.4594 -3.44307 1 1
288 1 20.5029 20.5029 0.891429 0 0 0 1 2
289 1 1.76761 1.7979 3.58005 -1.81778 3.45177 -4.23274 1 1
290 1 0.835881 0.914156 4.53367 -0.229778 4.2662 -5.43379 1 1
291 1 2.62861 2.73172 4.4483 -1.59544 7.37972 -8.04598 1 1
292 1 1.74026 21.3718 5.4467 0.840155 -4.59407 3.40877 1 1
293 1 1.74667 3.57369 5.37521 -3.13854 2.04139 0.0775206 1 1
294 1 21.3477 1.81099 5.36526 2.48138 0.723133 -4.06651 1 1
295 1 21.371 0.00137598 3.63727 1.43995 -4.28658 -3.40248 1 1
296 1 3.506 1.81026 5.39845 10.29 -0.746806 -8.16879 1 1
297 1 5.31604 1.78008 3.59294 -0.217209 -4.36042 -4.8501 1 1
298 1 4.41802 0.888412 4.46854 3.27323 1.30882 5.21707 1 1
299 1 6.24507 0.916832 6.32199 1.7088 -5.7651 -7.37729 1 1
300 1 6.25241 2.69772 4.48317 3.21977 1.52531 1.24951 1 1
301 1 3.5087 0.0441684 3.58769 -3.01513 3.99452 0.715287 1 1
302 1 7.0746 0.062834 3.57868 -6.7757 -3.94433 -0.537329 1 1
303 1 5.37214 0.0381607 5.3833 -6.5183 -4.31539 1.03984 1 1
304 1 7.11568 3.5508 3.57024 -0.451164 -1.16689 5.79315 1 1
305 1 7.11678 1.78027 5.37776 -11.5927 -2.01803 4.73282 1 1
306 1 8.92262 1.78417 3.59685 -6.19322 2.24323 0.2637 1 1
307 1 8.01774 0.90197 4.4829 -3.71185 -3.73775 9.51747 1 1
308 1 8.04762 2.6462 6.30471 3.43645 -0.364834 1.21556 1 1
309 1 9.77916 0.877482 6.30372 9.90834 -3.9992 -3.10604 1 1
310 1 9.8207 2.66286 4.43793 4.98184 -0.156162 -0.742542 1 1
311 1 10.7245 1.76052 5.36809 3.48171 0.880191 2.40023 1 1
312 1 12.4823 1.7512 3.53148 -5.45412 -2.83375 2.27401 1 1
313 1 11.6277 0.855476 4.46166 -1.32803 0.00639325 4.40925 1 1
314 1 11.5848 2.66487 6.27299 -1.57479 0.917298 1.20786 1 1
315 1 13.3859 2.64559 4.45863 -1.28985 8.11173 -5.18299 1 1
316 1 13.3526 0.89698 6.23682 -5.90252 8.90981 4.79351 1 1
317 1 12.5262 3.56294 5.38289 5.00752 -2.1542 4.328 1 1
318 1 14.2528 1.8046 5.38441 5.48576 4.10335 -1.36771 1 1
319 1 12.4503 21.3749 5.38231 -7.49434 0.379183 -5.05914 1 1
320 1 14.266 3.59596 3.54843 -2.60068 0.724172 0.586606 1 1
321 1 16.0146 1.81534 3.5626 -1.16205 1.72976 1.74512 1 1
322 1 15.1689 0.878479 4.46466 11.2577 6.35756 6.69154 1 1
323 1 15.1145 2.69576 6.27363 -0.461241 -11.6629 2.42313 1 1
324 1 16.8995 2.68199 4.48754 -1.59832 6.27329 -0.913053 1 1
325 1 17.8334 1.81197 5.39942 -1.35177 -3.18385 1.53306 1 1
326 1 16.0751 0.0198084 5.3626 -4.42032 5.93797 1.78316 1 1
327 1 19.5679 1.80149 3.6235 2.52737 -2.57385 0.896719 1 1
328 1 18.6804 0.928238 4.5058 -0.549204 4.96321 3.84609 1 1
329 1 20.4517 2.65144 4.44679 -7.13848 -1.97056 -1.198 1 1
330 1 17.8314 0.048533 3.58861 -5.39823 7.11297 -0.434309 1 1
331 1 19.5732 0.0139784 5.4279 7.58334 -1.49815 0.507989 1 1
332 1 0.0187177 3.56484 3.57682 -3.7146 -0.499014 -5.35546 1 1
333 1 1.7761 5.34683 3.55088 -8.63644 4.75589 -5.55475 1 1
334 1 0.875497 4.46563 4.41858 -0.543966 -3.08377 -3.65425 1 1
335 1 2.68674 4.46443 6.30133 -5.81645 -3.21066 9.71849 1 1
336 1 2.69588 6.23959 4.47633 -0.273325 8.11934 -2.63968 1 1
337 1 3.48817 3.65463 3.59198 -1.36468 0.0600815 -0.993967 1 1
338 1 0.0136545 5.40449 5.32815 -1.99887 2.1616 0.679861 1 1
339 1 3.55475 5.34467 5.37389 1.77808 0.256086 -7.75422 1 1
340 1 5.35178 3.5625 5.41924 4.79196 -0.763108 -0.221003 1 1
341 1 5.39805 5.36579 3.60395 -0.831099 3.61007 6.58064 1 1
342 1 4.41316 4.47759 4.51912 -6.71898 -3.1722 6.36239 1 1
343 1 4.47512 6.2415 6.27522 -3.28827 0.323532 3.66327 1 1
344 1 6.28924 6.25333 4.51355 0.277512 -4.2533 3.64866 1 1
345 1 7.15248 5.31997 5.38869 -1.16423 3.3997 1.41244 1 1
346 1 5.34273 7.14061 5.39072 1.03502 -1.88447 -0.443198 1 1
347 1 6.23403 4.45813 6.28441 5.48862 -3.12209 -6.04036 1 1
348 1 8.89346 3.58052 5.3774 -2.69179 0.958567 -0.744819 1 1
349 1 10.7204 3.5753 3.58009 -2.73257 -2.11114 3.59585 1 1
350 1 8.92384 5.35666 3.61424 -0.572368 -5.04981 -4.03148 1 1
351 1 8.01864 4.4541 4.49143 3.39462 0.205976 4.85657 1 1
352 1 8.06182 6.21256 6.23826 -10.4236 -2.49442 -4.43017 1 1
353 1 9.7968 4.44101 6.25247 0.00685402 3.92204 0.046664 1 1
354 1 9.79733 6.27824 4.47897 4.38696 -6.08941 1.84538 1 1
355 1 10.661 5.39325 5.36036 9.0891 -0.26739 -6.65088 1 1
356 1 12.4836 5.38594 3.5655 -11.329 -10.451 4.03962 1 1
357 1 11.6085 4.45991 4.47753 10.6989 -9.48312 -1.26128 1 1
358 1 13.3721 6.2817 4.48024 -0.225465 -3.99136 4.41947 1 1
359 1 14.2577 5.35977 5.3356 -0.487509 4.27454 -3.79822 1 1
360 1 15.947 3.63454 5.37491 -7.75901 4.10947 0.710785 1 1
361 1 17.8072 3.58343 3.60903 -7.40836 -1.22915 3.22006 1 1
362 1 16.0776 5.39273 3.54819 5.23988 4.53906 3.70387 1 1
363 1 15.1479 4.50345 4.42019 1.53802 -2.65192 7.75349 1 1
364 1 16.9687 6.25207 4.45463 6.29462 -1.99027 -0.259004 1 1
365 1 16.9359 4.44062 6.23257 -4.8877 4.98993 -0.947433 1 1
366 1 16.0825 7.1749 5.31173 -2.6019 4.14084 3.15723 1 1
367 1 15.1906 6.27863 6.21658 4.74346 1.83616 3.84051 1 1
368 1 19.6275 3.56203 5.35234 -1.87661 -1.18605 -4.64466 1 1
369 1 17.8303 5.35248 5.37811 -10.0082 -2.19189 4.94946 1 1
370 1 19.5874 5.33706 3.57939 2.22534 -2.39366 7.51673 1 1
371 1 18.7068 4.46916 4.47489 -1.32267 1.54062 0.0391332 1 1
372 1 20.4965 4.46226 6.22026 -4.55847 6.66456 -3.09818 1 1
373 1 20.4962 6.23429 4.44175 6.27807 -0.58551 -6.33028 1 1
374 1 19.6363 7.11008 5.35515 6.88492 2.84776 -6.25732 1 1
375 1 21.3937 7.09527 3.54171 0.141984 4.79733 -7.02249 1 1
376 1 1.83477 7.12681 5.37394 3.4871 2.46664 -7.25749 1 1
377 1 1.82527 8.88795 3.54586 3.92158 9.08271 6.05831 1 1
378 1 0.942348 8.03069 4.44494 -4.14117 -2.06974 1.68228 1 1
379 1 2.6639 8.02294 6.28197 -0.432129 -0.704222 3.72574 1 1
380 1 0.889128 9.8024 6.26931 -1.6057 -4.7528 8.46688 1 1
381 1 2.71903 9.83074 4.39809 -6.34761 -1.06667 1.19742 1 1
382 1 0.02022 8.93268 5.32178 1.45126 8.98214 1.85037 1 1
383 1 1.82014 10.7172 5.3235 2.65095 5.78587 1.77886 1 1
384 1 3.54093 7.12926 3.55774 -6.52092 1.49647 -10.8562 1 1
385 1 7.12517 7.15272 3.61462 -3.77028 -3.6765 4.48922 1 1
386 1 3.59675 10.7204 3.52775 -6.82513 -1.52329 -1.04074 1 1
387 1 3.56789 8.94482 5.35579 0.904132 7.59534 -5.55278 1 1
388 1 5.37696 8.94939 3.59342 4.59967 3.37356 -4.43629 1 1
389 1 4.48029 8.01316 4.51194 3.35612 -0.364812 5.08441 1 1
390 1 4.47308 9.81174 6.31952 5.2365 -5.74715 3.38451 1 1
391 1 6.24596 9.80367 4.47629 -5.72268 -0.133981 -1.48925 1 1
392 1 8.89804 7.14547 5.37308 -8.23403 -6.58402 -0.135837 1 1
393 1 7.12968 8.95248 5.34892 -4.8859 -5.49728 -1.68568 1 1
394 1 8.99469 8.93431 3.60766 5.6131 0.44192 -6.18639 1 1
395 1 8.02934 8.0765 4.48847 4.12356 0.414745 5.842 1 1
396 1 9.80529 9.81911 4.47711 -6.06303 -2.54624 -2.37618 1 1
397 1 10.6671 8.89727 5.32706 -5.18471 -5.8375 -4.54775 1 1
398 1 10.6946 10.7048 3.62178 2.70772 -7.3969 1.29491 1 1
399 1 9.82414 8.042 6.26637 -1.4111 -7.80136 -1.69795 1 1
400 1 12.4514 7.18522 5.32739 -3.8726 3.56309 4.5164 1 1
401 1 10.6731 7.1461 3.60185 -2.76026 -10.5032 -1.84231 1 1
402 1 12.4806 8.95896 3.58933 -1.74065 7.48366 0.517597 1 1
403 1 11.6009 8.04979 4.46696 3.47916 3.15059 0.477916 1 1
404 1 13.3853 9.80438 4.44048 3.90477 7.68613 -3.05343 1 1
405 1 14.2628 7.13735 3.57457 -8.4456 -2.52917 -9.78608 1 1
406 1 14.2855 8.93085 5.26978 -2.01312 -5.98686 -6.50741 1 1
407 1 17.865 7.17749 3.54808 4.1879 12.0427 -7.15248 1 1
408 1 16.0351 8.93211 3.55042 -7.65362 -0.266335 -7.91289 1 1
409 1 15.1582 8.07367 4.4259 6.56977 0.054865 -4.62097 1 1
410 1 16.9143 9.80777 4.4481 4.32023 7.89898 -0.436881 1 1
411 1 16.0812 10.7001 5.36662 -6.8482 2.4309 -0.85218 1 1
412 1 17.0127 8.03751 6.19359 0.699211 -6.2299 -2.04007 1 1
413 1 17.8606 8.91857 5.29926 5.05041 -1.10873 0.773489 1 1
414 1 19.6147 8.91132 3.56975 1.94618 4.59625 -2.03314 1 1
415 1 18.7377 8.04849 4.44273 5.71529 -1.88434 5.55713 1 1
416 1 18.75 9.78594 6.24928 5.26443 1.44379 1.89421 1 1
417 1 20.5081 9.83406 4.43983 0.785377 -1.81561 3.68968 1 1
418 1 20.5222 7.9796 6.27009 0.785943 7.65653 -3.64143 1 1
419 1 19.6173 10.7261 5.34099 3.43162 2.28448 -9.20186 1 1
420 1 21.3712 10.7438 3.51504 6.0483 -3.47807 -3.78946 1 1
421 1 1.78183 12.5142 3.47317 3.19717 0.79467 -1.69525 1 1
422 1 0.886515 11.6316 4.42198 5.76873 -4.26134 -1.92625 1 1
423 1 2.6774 11.5722 6.33882 -8.94242 0.26992 -11.2211 1 1
424 1 0.900992 13.3251 6.2154 3.01227 0.230722 -5.41684 1 1
425 1 2.66442 13.3494 4.44855 -9.03317 -6.07555 -2.96603 1 1
426 1 21.3983 12.4663 5.33684 6.85605 -0.1795 -3.54204 1 1
427 1 5.3956 10.7266 5.33125 -2.15403 0.564737 0.241858 1 1
428 1 3.54341 14.2716 3.56882 6.59085 6.32172 0.168687 1 1
429 1 3.56392 12.4413 5.35033 -12.9729 1.8426 0.458107 1 1
430 1 5.30099 12.4819 3.59828 2.81065 -4.03154 -3.89628 1 1
431 1 4.43785 11.58 4.45453 0.889955 4.11263 -2.35639 1 1
432 1 6.20805 13.3621 4.47057 -1.352 -2.62837 -0.54147 1 1
433 1 7.11578 14.264 3.58376 -0.651468 5.19047 -4.58905 1 1
434 1 6.25289 11.5879 6.23226 2.22414 4.0648 -5.8197 1 1
435 1 7.15839 10.679 3.60027 -6.87877 -3.41353 1.85833 1 1
436 1 7.15522 12.4726 5.32473 -2.96593 4.59817 -3.24041 1 1
437 1 8.9286 10.6983 5.38859 6.74864 7.57582 -5.80692 1 1
438 1 8.93743 12.4895 3.60027 4.58415 -0.238192 -6.27551 1 1
439 1 8.04052 11.6032 4.47803 -0.812254 -3.51797 -4.06681 1 1
440 1 9.83777 11.6289 6.30615 -0.680451 -6.63958 -3.25636 1 1
441 1 8.01318 13.3525 6.25803 -11.151 -2.83522 9.64842 1 1
442 1 9.8029 13.3029 4.43585 -2.98788 2.92161 -5.97592 1 1
443 1 10.7156 14.2181 3.5533 -0.622858 -0.121924 -1.12786 1 1
444 1 12.4675 10.6768 5.36424 -0.490832 -8.31143 -0.498525 1 1
445 1 10.7333 12.4891 5.40879 9.35355 1.91869 6.85709 1 1
446 1 12.475 12.4483 3.56208 7.71624 0.1342 0.107566 1 1
447 1 11.5693 11.5844 4.50493 1.0545 2.2489 -1.60784 1 1
448 1 13.3718 11.5561 6.26399 -3.93521 -8.95524 2.09061 1 1
449 1 11.6415 13.3696 6.28414 1.39798 -2.65186 -4.1663 1 1
450 1 13.3755 13.359 4.44863 -2.81363 3.3563 -2.63072 1 1
451 1 14.2619 10.7524 3.60895 9.65659 0.756922 -7.37832 1 1
452 1 14.2859 12.461 5.39151 2.2114 -1.22214 -3.83248 1 1
453 1 16.0691 12.4936 3.63415 -0.590929 0.955336 -2.8933 1 1
454 1 15.1852 11.575 4.5008 1.02204 2.14125 2.00914 1 1
455 1 16.9611 11.5925 6.23439 3.28517 0.975231 -2.60561 1 1
456 1 16.9554 13.4062 4.47049 2.72508 -9.24524 -8.65622 1 1
457 1 17.8201 12.48 5.35079 1.82548 -3.23171 -6.55772 1 1
458 1 15.1811 13.3709 6.24325 2.78254 -8.41013 1.60868 1 1
459 1 17.8579 10.6884 3.57794 2.74751 1.40051 -0.240664 1 1
460 1 19.6035 12.4828 3.51013 8.31141 -9.25761 0.85975 1 1
461 1 18.7266 11.6215 4.47061 1.65516 -1.08782 -0.214295 1 1
462 1 18.7091 13.3507 6.27149 -3.34546 4.43247 6.48635 1 1
463 1 20.4682 13.3915 4.42835 -2.46487 -4.06463 6.06928 1 1
464 1 20.475 11.6102 6.28018 -7.03175 -5.22805 0.0747932 1 1
465 1 1.77088 14.215 5.33724 -6.51262 -0.755626 -7.59782 1 1
466 1 1.77861 16.0298 3.57948 8.53486 -4.78766 2.94489 1 1
467 1 0.910856 15.1312 4.4307 -6.448 8.28661 0.631136 1 1
468 1 2.65512 15.1372 6.23011 -5.95612 -6.49205 1.72713 1 1
469 1 2.58298 16.9357 4.50278 1.95003 0.615171 -7.00283 1 1
470 1 21.338 16.0249 5.40235 4.9879 -10.1881 -5.91876 1 1
471 1 21.3854 14.2599 3.55243 0.119123 -3.94425 -2.65984 1 1
472 1 1.75502 17.8537 5.3898 2.17492 -1.61602 -3.12258 1 1
473 1 5.34303 14.2382 5.36028 7.3539 2.67812 3.23184 1 1
474 1 3.53952 16.0374 5.39021 -0.0538853 5.90225 5.18061 1 1
475 1 5.29555 16.0358 3.60864 1.64863 -0.330497 8.04604 1 1
476 1 4.4579 15.1157 4.4778 6.95735 1.20547 1.22679 1 1
477 1 4.4367 16.9454 6.25367 5.59288 6.3015 -3.84097 1 1
478 1 6.23604 15.1297 6.2782 -5.56652 4.99127 -0.217172 1 1
479 1 6.17315 16.9521 4.51618 -3.81709 4.12413 -0.454404 1 1
480 1 7.11337 16.0339 5.38104 3.41609 -6.57679 8.10169 1 1
481 1 8.90196 14.208 5.34627 -7.1135 1.26411 -1.43123 1 1
482 1 8.82394 16.0146 3.58546 3.48615 1.82475 8.27416 1 1
483 1 7.97667 15.1447 4.43091 4.9704 9.10547 6.04445 1 1
484 1 7.99467 16.9142 6.29225 1.49908 3.70649 1.17079 1 1
485 1 9.80574 15.149 6.21103 -3.15045 -1.68406 1.74865 1 1
486 1 9.81533 16.9206 4.47991 -7.30179 -2.52977 0.528717 1 1
487 1 10.679 15.9989 5.33173 -2.22681 4.86482 -6.52507 1 1
488 1 8.8785 17.8674 5.41564 -1.39851 2.38877 -1.14414 1 1
489 1 10.7439 17.8038 3.57922 -0.255449 -1.85594 -6.36808 1 1
490 1 12.5033 14.2194 5.35214 10.6511 5.56568 0.281407 1 1
491 1 12.4983 15.9864 3.57147 -6.17775 9.67806 -2.45862 1 1
492 1 11.595 15.0761 4.44353 -0.419725 -8.38902 3.61359 1 1
493 1 11.5726 16.8893 6.28711 -8.96835 2.82903 0.85611 1 1
494 1 13.3747 16.9135 4.40318 2.8591 4.56816 5.65861 1 1
495 1 13.3392 15.1503 6.2482 -6.93198 -2.49349 4.57262 1 1
496 1 12.4728 17.8458 5.35692 0.651383 1.6175 11.4137 1 1
497 1 14.3155 14.2228 3.58361 -0.145072 1.48064 -4.47189 1 1
498 1 16.0674 14.2446 5.36985 -4.5667 -4.14036 1.3078 1 1
499 1 17.8456 14.2803 3.5188 4.3644 6.1671 -6.43107 1 1
500 1 14.2913 16.0219 5.39593 -6.28969 -4.50797 -1.16829 1 1
501 1 14.2883 17.7785 3.50996 10.3108 -2.50157 -2.97874 1 1
502 1 16.0746 16.0497 3.59283 11.1556 -3.0819 -2.96641 1 1
503 1 15.185 15.1381 4.50942 4.51131 0.337653 2.19937 1 1
504 1 16.9388 16.9208 4.44148 -1.52001 2.95612 0.310942 1 1
505 1 16.9249 15.1242 6.2509 6.76806 -1.16138 1.04443 1 1
506 1 17.8502 15.9879 5.37473 -0.328133 5.08252 -6.9811 1 1
507 1 19.6453 14.2337 5.35354 1.10703 -4.50587 -8.97297 1 1
508 1 19.6068 16.0608 3.61462 -7.48922 -1.27251 0.0946435 1 1
509 1 18.7315 15.1414 4.45419 -5.39491 -7.4166 -0.321525 1 1
510 1 20.4705 16.9224 4.49959 -0.0714521 -1.13957 7.35799 1 1
511 1 19.5953 17.83 5.41527 1.49566 1.6984 -3.64865 1 1
512 1 20.4675 15.1142 6.30738 4.7721 4.50374 -1.68825 1 1
513 1 1.73146 19.6472 3.60441 -1.98961 -8.03512 0.391117 1 1
514 1 0.885477 18.7455 4.47243 2.5637 1.76679 11.4074 1 1
515 1 0.875975 20.4586 6.32028 6.83939 11.0427 -5.52723 1 1
516 1 2.59898 20.5223 4.44674 5.49137 -5.28074 1.33694 1 1
517 1 21.3585 17.8044 3.58615 2.40373 9.83287 1.5442 1 1
518 1 21.3632 19.6273 5.46089 -3.83498 1.32086 0.755849 1 1
519 1 2.62858 18.7242 6.28664 3.76792 -2.35547 0.83188 1 1
520 1 5.31731 17.8066 5.36603 -1.5037 -2.61708 -9.205 1 1
521 1 3.49167 17.8344 3.59092 -0.743306 1.36487 7.5173 1 1
522 1 3.51761 19.6241 5.40339 -5.96267 -4.61136 1.48536 1 1
523 1 5.33546 19.6432 3.61384 -2.13389 -4.74157 7.03893 1 1
524 1 4.41015 18.7646 4.50801 -5.03536 -2.77077 5.05875 1 1
525 1 4.43451 20.5591 6.26345 2.74089 -10.5303 2.21614 1 1
526 1 6.23013 18.7092 6.28518 12.2802 -4.23024 3.36363 1 1
527 1 6.18984 20.5668 4.47601 -0.702646 -6.63526 9.18121 1 1
528 1 7.09091 17.8191 3.6049 0.789885 -1.8267 5.69972 1 1
529 1 7.08259 19.6121 5.40749 9.40313 -0.402736 4.99884 1 1
530 1 8.91137 21.3516 5.3429 -2.37336 2.11938 8.60654 1 1
531 1 8.88998 19.6378 3.58867 -0.890927 3.15964 7.20109 1 1
532 1 7.96569 18.7415 4.49786 -3.87035 5.14779 -1.99108 1 1
533 1 8.0266 20.4754 6.27883 -1.82892 13.523 4.87377 1 1
534 1 9.79737 18.7479 6.3103 0.19934 6.75643 2.57781 1 1
535 1 9.81629 20.4815 4.47271 -0.0449217 -3.39917 -5.59336 1 1
536 1 10.6934 19.6093 5.37391 -9.04714 -6.36889 -1.12545 1 1
537 1 10.6982 21.3442 3.59795 6.96427 -0.408247 2.40773 1 1
538 1 12.506 19.569 3.60128 6.34738 -8.56013 -4.44809 1 1
539 1 11.5726 18.6978 4.48321 1.55463 -0.18179 -2.49274 1 1
540 1 13.3386 18.6895 6.24174 -2.17294 3.82578 3.49944 1 1
541 1 13.426 20.4661 4.49845 11.9575 7.30162 -2.36782 1 1
542 1 16.0312 17.7822 5.37308 -2.28735 3.80459 -1.45416 1 1
543 1 14.2857 21.33 3.57915 0.245117 5.66203 0.510677 1 1
544 1 14.2989 19.5633 5.37878 -7.83482 -0.759309 2.22189 1 1
545 1 16.0482 19.5952 3.57269 -1.42853 0.898634 3.76071 1 1
546 1 15.1591 18.6911 4.45337 -7.10245 4.77967 0.398642 1 1
547 1 16.9114 18.6835 6.25122 7.0983 11.0177 3.67325 1 1
548 1 16.9782 20.4819 4.43629 -3.34859 6.97967 -0.944688 1 1
549 1 17.8113 19.5541 5.36058 0.788179 -5.10943 -9.30145 1 1
550 1 17.8378 17.8064 3.6191 9.06845 3.29762 2.0206 1 1
551 1 19.6239 19.6174 3.61566 2.36407 -7.57141 -8.54335 1 1
552 1 18.7339 18.7004 4.50733 6.54082 1.16735 1.23115 1 1
553 1 18.7172 20.5057 6.2386 -8.26155 -2.10949 -0.285691 1 1
554 1 20.5157 18.693 6.30392 -2.97504 -5.81451 -7.24945 1 1
555 1 20.525 20.496 4.52223 -8.26877 1.55612 1.14285 1 1
556 1 2.63111 0.888747 6.27625 -2.87044 8.19485 1.51873 1 1
557 1 0.845076 2.68297 6.26903 -6.37062 4.7151 6.48041 1 1