ITEM: TIMESTEP
550
ITEM: NUMBER OF ATOMS
2953
ITEM: BOX BOUNDS pp pp mm
0.0000000000000000e+00 2.1394294200000001e+01
0.0000000000000000e+00 2.1394294200000001e+01
-4.4571446250000002e-01 5.3485735500000004e+01
ITEM: ATOMS id type x y z vx vy vz v_is_diamond c_structure_type
1 1 0 0 0 0 0 0 1 3
2 1 21.3549 1.82558 1.76767 -1.54829 -1.5641 4.77261 1 1
3 1 1.77257 0.0148006 1.79348 -0.0606366 0.501365 -5.31142 1 1
4 1 1.78286 1.78286 0 0 0 0 1 3
5 1 0.891429 0.891429 0.891429 0 0 0 1 2
6 1 0.907193 2.65394 2.72159 -3.64993 -5.34124 7.71331 1 1
7 1 2.705 0.888501 2.6761 -0.93634 -7.16446 4.95602 1 1
8 1 2.67429 2.67429 0.891429 0 0 0 1 2
9 1 3.56572 0 0 0 0 0 1 3
10 1 3.55696 1.79936 1.79737 -1.55622 -6.1514 0.842024 1 1
11 1 5.35952 0.0394489 1.76866 5.27263 -5.31074 -9.81253 1 1
12 1 5.34857 1.78286 0 0 0 0 1 3
13 1 4.45714 0.891429 0.891429 0 0 0 1 2
14 1 4.43117 2.71109 2.64533 1.81124 8.4322 -6.53777 1 1
15 1 6.20495 0.917042 2.71575 5.96995 -5.00225 4.22819 1 1
16 1 6.24 2.67429 0.891429 0 0 0 1 2
17 1 7.13143 0 0 0 0 0 1 3
18 1 7.0988 1.80774 1.8172 9.58292 -0.510931 4.07305 1 1
19 1 8.90225 21.3509 1.80421 0.357168 1.6339 9.27119 1 1
20 1 8.91429 1.78286 0 0 0 0 1 3
21 1 8.02286 0.891429 0.891429 0 0 0 1 2
22 1 8.02098 2.68272 2.71191 6.82027 2.80718 7.7181 1 1
23 1 9.80953 0.889271 2.66366 2.70564 2.04024 5.80396 1 1
24 1 9.80572 2.67429 0.891429 0 0 0 1 2
25 1 10.6971 0 0 0 0 0 1 3
26 1 10.6844 1.80539 1.78939 1.97914 3.04306 2.08946 1 1
27 1 12.512 21.3926 1.78663 2.29696 1.14783 -1.74008 1 1
28 1 12.48 1.78286 0 0 0 0 1 3
29 1 11.5886 0.891429 0.891429 0 0 0 1 2
30 1 11.6304 2.70354 2.68322 6.4375 -1.09599 1.69463 1 1
31 1 13.3725 0.90114 2.68143 -8.89105 2.12144 -12.5422 1 1
32 1 13.3714 2.67429 0.891429 0 0 0 1 2
33 1 14.2629 0 0 0 0 0 1 3
34 1 14.275 1.75027 1.76851 6.92089 5.22725 -3.86297 1 1
35 1 16.0617 21.3737 1.78659 2.47 0.264774 -6.08903 1 1
36 1 16.0457 1.78286 0 0 0 0 1 3
37 1 15.1543 0.891429 0.891429 0 0 0 1 2
38 1 15.1148 2.65317 2.68258 -2.85611 0.22767 -2.70203 1 1
39 1 16.9583 0.901042 2.69767 2.93008 1.53508 -0.662984 1 1
40 1 16.9371 2.67429 0.891429 0 0 0 1 2
41 1 17.8286 0 0 0 0 0 1 3
42 1 17.8373 1.79287 1.80251 4.85152 3.10671 6.30604 1 1
43 1 19.656 -0.000930983 1.84206 -2.97331 -4.09074 -2.05671 1 1
44 1 19.6114 1.78286 0 0 0 0 1 3
45 1 18.72 0.891429 0.891429 0 0 0 1 2
46 1 18.7024 2.66824 2.67646 -3.53632 -1.40593 -1.87168 1 1
47 1 20.4935 0.947701 2.69184 3.95499 -8.47762 9.42135 1 1
48 1 20.5029 2.67429 0.891429 0 0 0 1 2
49 1 0 3.56572 0 0 0 0 1 3
50 1 0.0138376 5.33652 1.80613 -4.08059 -2.81487 4.66369 1 1
51 1 1.75439 3.56526 1.79053 -4.06855 -4.82406 3.26486 1 1
52 1 1.78286 5.34857 0 0 0 0 1 3
53 1 0.891429 4.45714 0.891429 0 0 0 1 2
54 1 0.908604 6.2396 2.69507 -2.71807 1.86951 -2.46682 1 1
55 1 2.65043 4.4678 2.72652 -0.0424367 -5.10046 -4.42002 1 1
56 1 2.67429 6.24 0.891429 0 0 0 1 2
57 1 3.56572 3.56572 0 0 0 0 1 3
58 1 3.56531 5.32346 1.79287 -2.9381 4.56725 2.48561 1 1
59 1 5.35476 3.56183 1.79776 4.16494 -0.2244 -3.40354 1 1
60 1 5.34857 5.34857 0 0 0 0 1 3
61 1 4.45714 4.45714 0.891429 0 0 0 1 2
62 1 4.48798 6.21456 2.6749 -1.80831 -0.772922 3.12236 1 1
63 1 6.23866 4.44024 2.69316 -1.55676 -5.97377 0.542534 1 1
64 1 6.24 6.24 0.891429 0 0 0 1 2
65 1 7.13143 3.56572 0 0 0 0 1 3
66 1 7.14104 5.31896 1.8141 3.04752 -0.346876 3.22478 1 1
67 1 8.88896 3.53871 1.80416 -1.76743 -2.31585 -9.17279 1 1
68 1 8.91429 5.34857 0 0 0 0 1 3
69 1 8.02286 4.45714 0.891429 0 0 0 1 2
70 1 8.01318 6.24793 2.68776 -1.40835 -2.9488 0.176994 1 1
71 1 9.80957 4.46074 2.70583 -1.12187 -0.44358 2.16752 1 1
72 1 9.80572 6.24 0.891429 0 0 0 1 2
73 1 10.6971 3.56572 0 0 0 0 1 3
74 1 10.7147 5.36077 1.7918 -6.38637 6.69669 -4.03771 1 1
75 1 12.5128 3.58444 1.78539 1.14692 1.94063 1.47093 1 1
76 1 12.48 5.34857 0 0 0 0 1 3
77 1 11.5886 4.45714 0.891429 0 0 0 1 2
78 1 11.5602 6.28206 2.72612 7.00837 -7.15122 -6.71349 1 1
79 1 13.3583 4.46232 2.72503 -3.30619 8.23735 1.76667 1 1
80 1 13.3714 6.24 0.891429 0 0 0 1 2
81 1 14.2629 3.56572 0 0 0 0 1 3
82 1 14.2608 5.35539 1.80368 -3.10483 -3.73818 3.69659 1 1
83 1 16.021 3.5672 1.80606 2.31296 3.96225 -2.49021 1 1
84 1 16.0457 5.34857 0 0 0 0 1 3
85 1 15.1543 4.45714 0.891429 0 0 0 1 2
86 1 15.1423 6.25242 2.66341 -9.38928 4.58669 4.80752 1 1
87 1 16.9387 4.42036 2.70679 -10.1156 7.74034 1.46811 1 1
88 1 16.9371 6.24 0.891429 0 0 0 1 2
89 1 17.8286 3.56572 0 0 0 0 1 3
90 1 17.8115 5.30585 1.78063 5.3539 -3.71601 3.1637 1 1
91 1 19.6052 3.57095 1.76706 1.66519 3.48262 7.45542 1 1
92 1 19.6114 5.34857 0 0 0 0 1 3
93 1 18.72 4.45714 0.891429 0 0 0 1 2
94 1 18.6801 6.21897 2.71896 -5.6401 -1.27938 5.70217 1 1
95 1 20.5075 4.46689 2.68696 -0.832828 6.05314 -7.5161 1 1
96 1 20.5029 6.24 0.891429 0 0 0 1 2
97 1 0 7.13143 0 0 0 0 1 3
98 1 21.3885 8.93748 1.82019 -8.89419 4.06874 4.64777 1 1
99 1 1.78029 7.13894 1.78268 0.752497 4.91662 -0.221018 1 1
100 1 1.78286 8.91429 0 0 0 0 1 3
101 1 0.891429 8.02286 0.891429 0 0 0 1 2
102 1 0.898112 9.81427 2.72463 2.11634 3.10976 -0.239425 1 1
103 1 2.69117 8.07377 2.62933 -3.67149 4.99572 5.34432 1 1
104 1 2.67429 9.80572 0.891429 0 0 0 1 2
105 1 3.56572 7.13143 0 0 0 0 1 3
106 1 3.56373 8.93313 1.73268 2.90217 11.1063 -0.898057 1 1
107 1 5.38513 7.13819 1.76993 -4.49574 2.73445 -5.44925 1 1
108 1 5.34857 8.91429 0 0 0 0 1 3
109 1 4.45714 8.02286 0.891429 0 0 0 1 2
110 1 4.43373 9.77777 2.61186 -1.51198 3.9567 -0.598268 1 1
111 1 6.25759 7.99129 2.71108 -1.75331 -5.39464 -7.02701 1 1
112 1 6.24 9.80572 0.891429 0 0 0 1 2
113 1 7.13143 7.13143 0 0 0 0 1 3
114 1 7.13041 8.90279 1.75242 -1.64261 9.67183 0.97257 1 1
115 1 8.88242 7.13682 1.80812 2.43209 1.33475 -1.37714 1 1
116 1 8.91429 8.91429 0 0 0 0 1 3
117 1 8.02286 8.02286 0.891429 0 0 0 1 2
118 1 8.04829 9.79411 2.64618 -8.87232 -0.979907 -0.327042 1 1
119 1 9.78921 8.03279 2.70799 9.38554 4.36351 6.88628 1 1
120 1 9.80572 9.80572 0.891429 0 0 0 1 2
121 1 10.6971 7.13143 0 0 0 0 1 3
122 1 10.7106 8.89499 1.81712 7.34015 0.481271 -0.0791611 1 1
123 1 12.4613 7.12612 1.76562 -2.32813 7.12749 -4.54281 1 1
124 1 12.48 8.91429 0 0 0 0 1 3
125 1 11.5886 8.02286 0.891429 0 0 0 1 2
126 1 11.6019 9.77218 2.72032 -0.77543 3.21576 -8.94357 1 1
127 1 13.3448 8.03545 2.69204 -4.60943 1.59634 -1.85774 1 1
128 1 13.3714 9.80572 0.891429 0 0 0 1 2
129 1 14.2629 7.13143 0 0 0 0 1 3
130 1 14.2387 8.9079 1.8235 -2.21621 2.42035 3.89746 1 1
131 1 16.0278 7.14209 1.80353 -5.26296 2.04863 2.94049 1 1
132 1 16.0457 8.91429 0 0 0 0 1 3
133 1 15.1543 8.02286 0.891429 0 0 0 1 2
134 1 15.1893 9.7809 2.71501 7.37743 0.454174 -1.44014 1 1
135 1 16.8999 8.03105 2.7521 -5.12386 -5.63101 2.06346 1 1
136 1 16.9371 9.80572 0.891429 0 0 0 1 2
137 1 17.8286 7.13143 0 0 0 0 1 3
138 1 17.8099 8.89073 1.82123 -0.898915 -2.95334 -2.67299 1 1
139 1 19.5618 7.1324 1.78536 0.284145 -3.54027 0.0357455 1 1
140 1 19.6114 8.91429 0 0 0 0 1 3
141 1 18.72 8.02286 0.891429 0 0 0 1 2
142 1 18.7557 9.84573 2.6635 -3.07605 12.638 0.937571 1 1
143 1 20.5021 8.03925 2.67629 4.35985 -1.56023 0.928085 1 1
144 1 20.5029 9.80572 0.891429 0 0 0 1 2
145 1 0 10.6971 0 0 0 0 1 3
146 1 21.371 12.512 1.84369 -0.479707 -4.39373 -7.0423 1 1
147 1 1.77798 10.6906 1.7784 3.00981 -5.63635 0.0421672 1 1
148 1 1.78286 12.48 0 0 0 0 1 3
149 1 0.891429 11.5886 0.891429 0 0 0 1 2
150 1 0.900277 13.4043 2.70736 0.140736 -2.53221 -3.11286 1 1
151 1 2.68553 11.5981 2.70028 3.9925 0.22444 4.94188 1 1
152 1 2.67429 13.3714 0.891429 0 0 0 1 2
153 1 3.56572 10.6971 0 0 0 0 1 3
154 1 3.58761 12.4637 1.84232 9.07022 -3.58638 -2.25313 1 1
155 1 5.30084 10.706 1.75963 4.13161 4.87104 -2.33359 1 1
156 1 5.34857 12.48 0 0 0 0 1 3
157 1 4.45714 11.5886 0.891429 0 0 0 1 2
158 1 4.47173 13.4196 2.688 2.27059 -12.919 -3.11444 1 1
159 1 6.26186 11.6191 2.70293 -3.33574 -3.01507 15.5374 1 1
160 1 6.24 13.3714 0.891429 0 0 0 1 2
161 1 7.13143 10.6971 0 0 0 0 1 3
162 1 7.1492 12.4602 1.74324 8.12071 7.32033 8.96886 1 1
163 1 8.90533 10.6894 1.77977 -3.75538 0.329637 -3.01775 1 1
164 1 8.91429 12.48 0 0 0 0 1 3
165 1 8.02286 11.5886 0.891429 0 0 0 1 2
166 1 8.05195 13.3736 2.63998 4.25688 -0.650494 -0.934976 1 1
167 1 9.80163 11.6004 2.67392 -1.22075 4.93462 0.902393 1 1
168 1 9.80572 13.3714 0.891429 0 0 0 1 2
169 1 10.6971 10.6971 0 0 0 0 1 3
170 1 10.7473 12.4713 1.75115 5.8602 -0.504247 12.903 1 1
171 1 12.4733 10.7073 1.7791 4.78443 -1.61933 0.952898 1 1
172 1 12.48 12.48 0 0 0 0 1 3
173 1 11.5886 11.5886 0.891429 0 0 0 1 2
174 1 11.5903 13.3495 2.67319 -1.57808 -2.31657 6.77711 1 1
175 1 13.3647 11.5649 2.66142 1.14532 4.50359 1.82589 1 1
176 1 13.3714 13.3714 0.891429 0 0 0 1 2
177 1 14.2629 10.6971 0 0 0 0 1 3
178 1 14.2447 12.5028 1.78467 -2.93939 -0.190412 0.157262 1 1
179 1 16.0878 10.694 1.79481 -4.2607 0.97462 4.53363 1 1
180 1 16.0457 12.48 0 0 0 0 1 3
181 1 15.1543 11.5886 0.891429 0 0 0 1 2
182 1 15.1549 13.3352 2.63802 -1.58038 -0.217146 3.37381 1 1
183 1 16.9431 11.5645 2.67966 -7.36653 0.904994 -4.53526 1 1
184 1 16.9371 13.3714 0.891429 0 0 0 1 2
185 1 17.8286 10.6971 0 0 0 0 1 3
186 1 17.8609 12.4869 1.79088 3.64183 -0.904006 1.218 1 1
187 1 19.6095 10.7013 1.78635 -5.62662 -0.470715 0.263504 1 1
188 1 19.6114 12.48 0 0 0 0 1 3
189 1 18.72 11.5886 0.891429 0 0 0 1 2
190 1 18.6885 13.3854 2.73271 -2.52435 6.58466 3.48001 1 1
191 1 20.5059 11.5902 2.70552 -0.269251 -7.99829 0.0779593 1 1
192 1 20.5029 13.3714 0.891429 0 0 0 1 2
193 1 0 14.2629 0 0 0 0 1 3
194 1 21.3953 16.0897 1.7557 2.46238 -2.76887 9.65332 1 1
195 1 1.76176 14.2771 1.81091 -6.36738 5.82912 0.904958 1 1
196 1 1.78286 16.0457 0 0 0 0 1 3
197 1 0.891429 15.1543 0.891429 0 0 0 1 2
198 1 0.954817 16.9612 2.66247 6.0414 -0.0242056 10.4173 1 1
199 1 2.67988 15.1661 2.70088 1.47851 -2.13403 4.63635 1 1
200 1 2.67429 16.9371 0.891429 0 0 0 1 2
201 1 3.56572 14.2629 0 0 0 0 1 3
202 1 3.57244 15.9977 1.79631 -12.1588 -0.0574202 -2.21277 1 1
203 1 5.37901 14.2863 1.76946 -10.6567 -0.0727395 -5.9495 1 1
204 1 5.34857 16.0457 0 0 0 0 1 3
205 1 4.45714 15.1543 0.891429 0 0 0 1 2
206 1 4.44902 16.9417 2.65225 -5.53243 -4.24371 -4.74907 1 1
207 1 6.27449 15.1365 2.65688 0.742298 5.0135 0.624365 1 1
208 1 6.24 16.9371 0.891429 0 0 0 1 2
209 1 7.13143 14.2629 0 0 0 0 1 3
210 1 7.14089 16.0542 1.76404 -1.1957 -2.69794 6.63779 1 1
211 1 8.94573 14.2468 1.78522 4.30765 0.390136 -0.301642 1 1
212 1 8.91429 16.0457 0 0 0 0 1 3
213 1 8.02286 15.1543 0.891429 0 0 0 1 2
214 1 8.02834 16.9266 2.6189 0.0244187 -7.88467 4.28963 1 1
215 1 9.83839 15.1523 2.65235 7.75929 -0.0416383 3.65967 1 1
216 1 9.80572 16.9371 0.891429 0 0 0 1 2
217 1 10.6971 14.2629 0 0 0 0 1 3
218 1 10.6889 16.0677 1.80316 1.10119 0.323606 -7.08678 1 1
219 1 12.4697 14.2678 1.82768 -1.34064 -3.46934 7.99695 1 1
220 1 12.48 16.0457 0 0 0 0 1 3
221 1 11.5886 15.1543 0.891429 0 0 0 1 2
222 1 11.6035 16.9483 2.68037 -0.290539 -9.16386 4.37572 1 1
223 1 13.3762 15.1765 2.69837 -2.81164 7.77688 3.14197 1 1
224 1 13.3714 16.9371 0.891429 0 0 0 1 2
225 1 14.2629 14.2629 0 0 0 0 1 3
226 1 14.2627 16.0744 1.78596 2.87838 -2.75157 6.3578 1 1
227 1 16.0418 14.2564 1.81419 2.66771 9.75233 -0.164704 1 1
228 1 16.0457 16.0457 0 0 0 0 1 3
229 1 15.1543 15.1543 0.891429 0 0 0 1 2
230 1 15.1373 16.9426 2.69546 -4.72561 10.2014 -4.86811 1 1
231 1 16.9318 15.1961 2.67888 -1.89529 -8.18428 -2.44477 1 1
232 1 16.9371 16.9371 0.891429 0 0 0 1 2
233 1 17.8286 14.2629 0 0 0 0 1 3
234 1 17.818 16.0373 1.7715 8.82534 -5.14833 0.346997 1 1
235 1 19.6216 14.2762 1.82728 -3.66967 -9.36559 6.69107 1 1
236 1 19.6114 16.0457 0 0 0 0 1 3
237 1 18.72 15.1543 0.891429 0 0 0 1 2
238 1 18.7787 16.9227 2.6527 6.964 -4.17119 4.0766 1 1
239 1 20.5075 15.1912 2.66611 -3.01703 4.68831 4.38431 1 1
240 1 20.5029 16.9371 0.891429 0 0 0 1 2
241 1 0 17.8286 0 0 0 0 1 3
242 1 0.0147577 19.6711 1.77109 -3.73063 1.59102 7.39853 1 1
243 1 1.80839 17.8158 1.81315 4.85811 2.92734 -6.40451 1 1
244 1 1.78286 19.6114 0 0 0 0 1 3
245 1 0.891429 18.72 0.891429 0 0 0 1 2
246 1 0.93566 20.5296 2.69419 7.22257 -3.57981 -4.27895 1 1
247 1 2.6777 18.7335 2.68055 -0.771442 -5.36269 -1.96203 1 1
248 1 2.67429 20.5029 0.891429 0 0 0 1 2
249 1 3.56572 17.8286 0 0 0 0 1 3
250 1 3.56562 19.623 1.76291 1.76196 0.739675 10.7275 1 1
251 1 5.35691 17.8443 1.78738 -1.97395 -6.91103 -2.84161 1 1
252 1 5.34857 19.6114 0 0 0 0 1 3
253 1 4.45714 18.72 0.891429 0 0 0 1 2
254 1 4.3722 20.5326 2.66977 0.571734 -1.83024 -5.37789 1 1
255 1 6.24415 18.6908 2.69525 -3.96325 2.68786 4.35376 1 1
256 1 6.24 20.5029 0.891429 0 0 0 1 2
257 1 7.13143 17.8286 0 0 0 0 1 3
258 1 7.14921 19.5931 1.79517 2.72513 3.70447 1.98367 1 1
259 1 8.91767 17.84 1.74672 8.04167 -4.99572 -11.0376 1 1
260 1 8.91429 19.6114 0 0 0 0 1 3
261 1 8.02286 18.72 0.891429 0 0 0 1 2
262 1 7.95667 20.5029 2.72402 -12.1654 -0.64638 2.90603 1 1
263 1 9.80297 18.7401 2.65483 -2.83465 -3.48883 -1.85901 1 1
264 1 9.80572 20.5029 0.891429 0 0 0 1 2
265 1 10.6971 17.8286 0 0 0 0 1 3
266 1 10.7408 19.5777 1.79227 -1.50426 -3.39485 -1.71889 1 1
267 1 12.5264 17.8343 1.78949 0.370713 -12.763 0.608938 1 1
268 1 12.48 19.6114 0 0 0 0 1 3
269 1 11.5886 18.72 0.891429 0 0 0 1 2
270 1 11.5911 20.5002 2.73045 4.77399 -4.17053 -3.97534 1 1
271 1 13.3633 18.7115 2.6993 2.34543 -4.70718 1.44466 1 1
272 1 13.3714 20.5029 0.891429 0 0 0 1 2
273 1 14.2629 17.8286 0 0 0 0 1 3
274 1 14.2816 19.6049 1.81112 1.18464 4.97122 0.813194 1 1
275 1 16.0439 17.8159 1.80999 -3.96665 2.22295 1.03521 1 1
276 1 16.0457 19.6114 0 0 0 0 1 3
277 1 15.1543 18.72 0.891429 0 0 0 1 2
278 1 15.1745 20.4769 2.70434 -3.78036 -8.14965 1.47712 1 1
279 1 16.958 18.7001 2.70857 -6.88899 0.212659 2.05327 1 1
280 1 16.9371 20.5029 0.891429 0 0 0 1 2
281 1 17.8286 17.8286 0 0 0 0 1 3
282 1 17.8378 19.6236 1.78485 0.822748 1.2612 -0.0299555 1 1
283 1 19.6215 17.8752 1.76933 3.57179 -5.40562 3.77577 1 1
284 1 19.6114 19.6114 0 0 0 0 1 3
285 1 18.72 18.72 0.891429 0 0 0 1 2
286 1 18.7427 20.5303 2.6853 5.77837 -6.63607 3.62395 1 1
287 1 20.5264 18.718 2.67179 -1.54089 0.476244 0.336225 1 1
288 1 20.5029 20.5029 0.891429 0 0 0 1 2
289 1 0.0315456 0.0110009 3.63784 -5.24449 0.861228 2.25385 1 1
290 1 21.3881 1.78328 5.39978 3.96197 -2.1179 7.20088 1 1
291 1 1.79307 21.3779 5.40236 4.70386 -2.44699 3.87243 1 1
292 1 1.79857 1.82114 3.57742 1.55227 6.16329 -1.81063 1 1
293 1 0.892226 0.946759 4.51651 -1.86346 -4.77863 2.54152 1 1
294 1 0.885315 2.66436 6.28625 -1.55676 0.870761 -5.33969 1 1
295 1 2.61625 0.910044 6.305 0.202294 6.00705 1.82089 1 1
296 1 2.68508 2.65895 4.51942 -3.57019 -4.72911 -0.678065 1 1
297 1 3.5098 0.0219148 3.53899 6.33842 -2.21569 2.76404 1 1
298 1 3.57326 1.7793 5.40986 4.82216 2.16826 -4.5134 1 1
299 1 5.28175 21.3693 5.35745 6.2573 5.66249 -5.91932 1 1
300 1 5.36292 1.79042 3.60655 4.69224 -4.94126 -0.166529 1 1
301 1 4.44817 0.905303 4.5151 -6.22831 9.19345 8.82035 1 1
302 1 4.43282 2.63217 6.32616 9.87466 -2.77742 1.99319 1 1
303 1 6.23087 0.877173 6.28398 -2.70262 1.18629 -0.250939 1 1
304 1 6.24936 2.66569 4.53663 -3.72784 8.89032 3.54357 1 1
305 1 7.10575 0.0129205 3.56831 -1.56374 3.62144 -2.54804 1 1
306 1 7.11145 1.77109 5.41025 1.76779 -3.14109 0.641358 1 1
307 1 8.85295 0.00709595 5.41107 -1.1852 -7.12672 -0.467267 1 1
308 1 8.92801 1.8034 3.57846 3.40865 7.65757 4.44288 1 1
309 1 8.02373 0.891758 4.48391 7.30528 2.29658 12.0054 1 1
310 1 8.07116 2.66453 6.29574 -3.73522 1.23597 1.50602 1 1
311 1 9.7664 0.863421 6.30458 -1.18729 6.0216 -4.04666 1 1
312 1 9.79823 2.68387 4.48054 -0.960532 1.6227 6.98321 1 1
313 1 10.6637 -0.000490711 3.58278 3.13517 -5.64617 2.79614 1 1
314 1 10.6674 1.77089 5.37822 8.65351 -6.7493 8.18548 1 1
315 1 12.4331 21.3682 5.37463 2.09505 3.30491 6.19194 1 1
316 1 12.4421 1.77129 3.56153 3.26938 0.0578858 1.72675 1 1
317 1 11.5412 0.902484 4.45875 4.40576 5.0145 4.70669 1 1
318 1 11.5851 2.65615 6.31947 -1.43935 -3.07896 -2.97856 1 1
319 1 13.3667 0.869261 6.28979 7.17544 -7.7961 1.27849 1 1
320 1 13.3738 2.65373 4.47293 -3.78489 0.920724 3.51986 1 1
321 1 14.2876 21.3764 3.56357 6.56909 -3.32996 3.31009 1 1
322 1 14.3044 1.77156 5.35962 1.88464 3.27394 -5.88165 1 1
323 1 16.0222 21.3962 5.341 3.57645 3.17902 3.43396 1 1
324 1 16.0495 1.81572 3.5775 -9.28787 8.65333 5.61417 1 1
325 1 15.1724 0.913496 4.45682 -3.01563 -1.80582 -0.964037 1 1
326 1 15.1279 2.66678 6.29251 -0.672291 -0.984342 3.68713 1 1
327 1 16.9321 0.872555 6.29195 4.21544 4.83445 4.32504 1 1
328 1 16.91 2.70575 4.49027 2.70659 7.0345 1.69535 1 1
329 1 17.8293 0.0171314 3.5637 -3.79717 4.60953 7.28345 1 1
330 1 17.8341 1.73329 5.36812 -5.28711 7.27678 -1.49292 1 1
331 1 19.5994 0.0139897 5.34228 -1.07802 3.2877 -2.6241 1 1
332 1 19.6107 1.79261 3.54668 -0.808078 2.63621 0.334466 1 1
333 1 18.7123 0.896828 4.52104 -5.77889 -2.97491 -3.32231 1 1
334 1 18.7256 2.69406 6.28953 4.94547 2.73376 3.30943 1 1
335 1 20.4681 0.884415 6.30237 -3.33465 -0.740538 7.30596 1 1
336 1 20.4891 2.66561 4.51131 2.22001 2.59344 4.97648 1 1
337 1 0.0423528 3.55683 3.61089 1.23999 -0.872667 2.39997 1 1
338 1 0.0370896 5.34645 5.37686 -4.57283 -3.34541 -0.754413 1 1
339 1 1.8112 3.55753 5.38937 5.0754 0.332907 1.42314 1 1
340 1 1.78824 5.33066 3.58731 0.265498 -2.50955 1.84522 1 1
341 1 0.935452 4.43961 4.4837 3.41166 7.58837 2.06864 1 1
342 1 0.910831 6.21086 6.29755 0.36993 0.131452 9.25463 1 1
343 1 2.67811 4.44983 6.29402 0.950231 0.17883 0.868601 1 1
344 1 2.74018 6.28428 4.48632 -0.441772 -7.21795 4.0805 1 1
345 1 3.59125 3.563 3.57508 -2.21311 0.131167 -13.3864 1 1
346 1 3.62726 5.36361 5.41356 -7.69732 -3.23098 -3.48377 1 1
347 1 5.33439 3.575 5.41234 1.46163 2.67307 2.37889 1 1
348 1 5.38362 5.33463 3.58281 5.78987 1.78614 1.65383 1 1
349 1 4.48361 4.47159 4.49935 -1.84806 -0.789054 -9.95495 1 1
350 1 4.49619 6.28688 6.28648 5.61774 -0.551625 -3.65921 1 1
351 1 6.25252 4.48611 6.25526 -2.41656 -3.24804 -1.55114 1 1
352 1 6.24644 6.21287 4.48705 -1.5095 7.09408 -1.44036 1 1
353 1 7.14726 3.57472 3.61408 6.50266 -2.78125 1.33212 1 1
354 1 7.18756 5.36672 5.38289 4.85816 -0.256148 4.80186 1 1
355 1 8.92929 3.58756 5.39493 -0.675066 3.37311 1.43248 1 1
356 1 8.89011 5.35949 3.63381 7.06368 -1.68973 3.18422 1 1
357 1 8.00526 4.48142 4.51869 -9.13926 -1.55025 8.05614 1 1
358 1 8.02883 6.25665 6.31215 -3.00774 5.37887 -1.00725 1 1
359 1 9.80136 4.44544 6.33008 -0.85114 0.198662 -3.75823 1 1
360 1 9.77565 6.25477 4.46544 -0.880248 2.74843 -0.520087 1 1
361 1 10.7382 3.55339 3.58097 -7.51105 0.819017 -1.71906 1 1
362 1 10.6985 5.3566 5.40221 5.41429 -4.32099 3.93433 1 1
363 1 12.4608 3.5388 5.40917 5.54148 2.72629 -4.54482 1 1
364 1 12.4642 5.43975 3.62497 3.62609 3.46744 12.0408 1 1
365 1 11.5765 4.45393 4.49242 4.37624 6.30841 -3.7951 1 1
366 1 11.5412 6.24098 6.27434 5.44861 7.25078 3.39018 1 1
367 1 13.3527 4.45025 6.30364 -8.20699 -2.99088 2.04075 1 1
368 1 13.3751 6.23601 4.52466 -1.13547 -5.39307 0.377844 1 1
369 1 14.2305 3.5346 3.59289 10.2831 -2.77505 0.625796 1 1
370 1 14.2206 5.33243 5.39119 -1.51351 -4.16511 3.12694 1 1
371 1 16.0554 3.574 5.40805 -4.66114 -0.361005 -5.74847 1 1
372 1 16.0175 5.31072 3.58586 6.73191 0.167359 -1.00526 1 1
373 1 15.1036 4.42314 4.5075 -10.3831 4.51986 -3.44214 1 1
374 1 15.1512 6.23985 6.31031 -4.92479 -6.37378 -10.52 1 1
375 1 16.915 4.49992 6.29039 -3.47583 1.75351 -6.00567 1 1
376 1 16.9237 6.22975 4.50336 -3.08435 4.41383 2.95424 1 1
377 1 17.8287 3.56073 3.52009 0.934834 1.92041 -1.79184 1 1
378 1 17.8213 5.32537 5.38631 2.47628 -7.40853 4.39581 1 1
379 1 19.5865 3.51315 5.38021 2.75441 6.68935 9.46867 1 1
380 1 19.6242 5.36445 3.60391 -10.252 2.21572 2.90677 1 1
381 1 18.7415 4.45118 4.44054 -3.50133 -3.70816 -0.935476 1 1
382 1 18.7299 6.21523 6.27929 1.50894 2.76202 9.71615 1 1
383 1 20.5105 4.41256 6.30179 -2.35175 4.86773 -8.45556 1 1
384 1 20.588 6.26134 4.50833 3.11214 8.94762 7.26471 1 1
385 1 0.0378838 7.17167 3.62809 -2.15878 2.19296 -2.04325 1 1
386 1 21.3957 8.91581 5.39718 7.8967 -2.04316 -2.07233 1 1
387 1 1.81474 7.13843 5.37449 4.33147 5.54374 6.64929 1 1
388 1 1.82864 8.93134 3.608 -1.31004 2.84171 0.671247 1 1
389 1 0.937818 8.06153 4.49217 5.9046 0.0559214 4.09215 1 1
390 1 0.881994 9.78841 6.25468 2.74915 4.87667 -1.2579 1 1
391 1 2.72273 8.0264 6.28946 -2.95721 3.18922 1.29567 1 1
392 1 2.68342 9.78221 4.48343 11.7056 0.917166 1.63316 1 1
393 1 3.63263 7.17989 3.60419 3.71616 -0.286811 -3.24875 1 1
394 1 3.57511 8.93609 5.37538 4.45247 -5.47459 -3.69061 1 1
395 1 5.39785 7.14135 5.3779 8.71623 -3.50999 2.76898 1 1
396 1 5.38237 8.89705 3.54538 3.45692 -0.47865 -1.27645 1 1
397 1 4.48537 8.02283 4.47771 1.79912 5.82163 7.83184 1 1
398 1 4.52068 9.79823 6.27886 -2.95827 6.20684 2.78569 1 1
399 1 6.27527 8.01444 6.28584 1.66969 -1.97454 4.88498 1 1
400 1 6.29508 9.838 4.45841 -1.84658 7.15118 3.62913 1 1
401 1 7.15007 7.12163 3.56029 -4.04423 7.7679 -1.44549 1 1
402 1 7.09912 8.91797 5.38302 -1.02702 6.47626 2.73643 1 1
403 1 8.89558 7.12291 5.33732 5.45897 1.20797 5.96138 1 1
404 1 8.91538 8.92841 3.61461 0.166715 -0.847409 3.08291 1 1
405 1 8.01487 8.02591 4.4831 -4.34173 -2.88344 -2.23844 1 1
406 1 8.03063 9.83735 6.31055 -4.21562 -0.39818 7.03595 1 1
407 1 9.7944 7.99351 6.23864 0.771838 1.23455 -1.88152 1 1
408 1 9.80902 9.80026 4.51664 -3.48148 -1.53253 2.87089 1 1
409 1 10.7136 7.15015 3.60584 7.38604 -3.18728 0.67573 1 1
410 1 10.6886 8.89582 5.39119 -3.27477 5.28167 2.35355 1 1
411 1 12.4372 7.12478 5.39486 -2.99999 -2.56165 4.53338 1 1
412 1 12.4726 8.93308 3.58282 -1.21187 -3.8474 6.90725 1 1
413 1 11.5952 8.03735 4.47684 6.69043 2.52117 7.18375 1 1
414 1 11.5863 9.81149 6.26613 3.39226 1.15685 1.7153 1 1
415 1 13.3521 8.02409 6.30588 -2.61833 6.88481 -0.675144 1 1
416 1 13.3649 9.80951 4.47698 6.6535 10.1377 1.20955 1 1
417 1 14.271 7.10482 3.60965 -0.0751517 0.917988 -1.45447 1 1
418 1 14.2533 8.89016 5.42378 -1.31181 -2.23034 7.1334 1 1
419 1 16.0346 7.08817 5.38643 5.27041 -5.27725 -6.7322 1 1
420 1 16.0689 8.88276 3.6192 7.46547 -3.30882 -1.93299 1 1
421 1 15.138 7.99519 4.49424 -5.04097 -1.85158 1.50718 1 1
422 1 15.1364 9.81793 6.2964 -1.43333 -3.9954 3.53178 1 1
423 1 16.9432 7.99225 6.2529 -2.81612 -3.58207 -1.41202 1 1
424 1 16.9645 9.8023 4.47777 -7.1747 1.47321 -6.55675 1 1
425 1 17.8226 7.08242 3.59421 -8.4684 15.7935 8.12914 1 1
426 1 17.8319 8.93611 5.33232 2.34348 -2.73648 0.125255 1 1
427 1 19.6576 7.13229 5.39832 -1.1374 -12.4611 -1.05363 1 1
428 1 19.6135 8.89106 3.6031 6.94277 -4.83247 8.29802 1 1
429 1 18.7268 7.97451 4.48996 5.75648 0.135022 -3.75594 1 1
430 1 18.7021 9.78798 6.24704 1.17277 -3.15485 -3.57653 1 1
431 1 20.5038 8.0265 6.26855 4.01517 1.33621 -3.02547 1 1
432 1 20.4896 9.82966 4.47432 0.983934 -0.790291 0.934982 1 1
433 1 21.3888 10.6923 3.56609 -2.35557 -5.04086 4.64766 1 1
434 1 21.3677 12.4987 5.35613 -0.935503 4.48056 1.91578 1 1
435 1 1.80858 10.6744 5.32015 -3.56244 -6.41578 0.732945 1 1
436 1 1.76075 12.4525 3.57704 1.63419 -7.17491 -4.28153 1 1
437 1 0.884848 11.5611 4.44472 -0.429592 -1.27739 -4.902 1 1
438 1 0.877696 13.391 6.27547 1.3165 -2.71836 -1.69053 1 1
439 1 2.66588 11.5646 6.22289 -0.989154 4.79063 4.09478 1 1
440 1 2.73818 13.3063 4.46924 1.19542 3.41547 4.45705 1 1
441 1 3.57455 10.7007 3.60311 1.88542 -1.23563 -0.170657 1 1
442 1 3.61607 12.4407 5.37071 -7.50419 -3.05502 3.03504 1 1
443 1 5.38354 10.7066 5.33799 5.33153 4.61444 -4.15672 1 1
444 1 5.34726 12.4787 3.55743 0.363264 8.02026 0.361241 1 1
445 1 4.514 11.5641 4.47652 5.03008 -0.84552 4.92992 1 1
446 1 4.49237 13.4114 6.27757 5.67807 2.40391 6.04963 1 1
447 1 6.24901 11.6136 6.22725 -10.9262 8.36349 -5.54585 1 1
448 1 6.2342 13.3646 4.47708 0.741468 5.46253 0.0315773 1 1
449 1 7.13001 10.7513 3.58799 4.57464 5.88291 -1.51113 1 1
450 1 7.13943 12.5095 5.38358 4.46056 -5.84908 2.99623 1 1
451 1 8.92748 10.6835 5.38763 2.93034 4.43616 7.38288 1 1
452 1 8.91731 12.4551 3.57079 0.451902 3.14697 7.87032 1 1
453 1 8.01317 11.5768 4.47483 1.44793 0.72431 -1.42851 1 1
454 1 8.01123 13.3833 6.24456 0.515581 0.0234315 0.439588 1 1
455 1 9.81349 11.5851 6.30392 3.98473 -3.54079 1.20703 1 1
456 1 9.84294 13.3491 4.48634 -1.92067 2.90976 5.24399 1 1
457 1 10.6908 10.7095 3.62449 -0.713357 -8.01565 2.54443 1 1
458 1 10.7119 12.47 5.37111 4.14763 4.49283 2.30988 1 1
459 1 12.4494 10.7068 5.39313 -4.25028 5.63836 -5.15437 1 1
460 1 12.4826 12.4549 3.57405 1.94449 11.3092 3.8851 1 1
461 1 11.5997 11.6149 4.46617 -0.213608 -0.392225 -1.60758 1 1
462 1 11.611 13.3874 6.26446 5.19086 -2.78247 3.86192 1 1
463 1 13.381 11.5694 6.27313 5.89385 -9.29026 -3.09839 1 1
464 1 13.4219 13.3512 4.5118 1.56296 4.90151 -3.6868 1 1
465 1 14.3143 10.6821 3.56618 5.02594 6.89444 8.17539 1 1
466 1 14.3119 12.44 5.40437 -1.36226 -2.12445 -3.03193 1 1
467 1 16.0543 10.7095 5.40737 -3.03236 3.71483 2.76039 1 1
468 1 16.066 12.4901 3.54891 -7.00246 -6.35217 3.37713 1 1
469 1 15.2064 11.5702 4.47543 -2.04038 -0.520352 3.38681 1 1
470 1 15.2325 13.3582 6.28408 5.19068 2.07982 -1.5906 1 1
471 1 16.9542 11.5892 6.32722 -2.37399 5.18349 5.35307 1 1
472 1 16.9032 13.3866 4.49569 8.8803 4.27797 -8.07276 1 1
473 1 17.8314 10.7215 3.603 1.05559 2.9066 7.49313 1 1
474 1 17.8546 12.5196 5.39382 -5.2814 -0.790432 -2.56437 1 1
475 1 19.5784 10.7146 5.35692 0.269575 -8.53626 5.21418 1 1
476 1 19.5966 12.5082 3.62322 6.06896 2.07289 7.61393 1 1
477 1 18.7025 11.6124 4.50883 4.75113 -6.55655 -2.53029 1 1
478 1 18.7396 13.3788 6.33249 -2.09708 3.69292 -1.03914 1 1
479 1 20.4752 11.5615 6.25837 3.25906 2.07656 0.222917 1 1
480 1 20.4786 13.3772 4.50088 10.4251 4.53176 2.01649 1 1
481 1 0.0155108 14.2747 3.60111 0.950743 -1.34666 4.19608 1 1
482 1 0.000817209 16.0485 5.45088 -2.61559 9.26208 3.13293 1 1
483 1 1.79915 14.2418 5.4134 -2.25294 4.44093 2.04993 1 1
484 1 1.79763 16.0952 3.56725 -5.67949 3.14418 0.104181 1 1
485 1 0.895602 15.1415 4.52955 6.45591 9.6564 -4.43932 1 1
486 1 0.906846 16.9655 6.31578 -2.48715 -2.29642 2.06362 1 1
487 1 2.73959 15.1508 6.31233 -1.37296 -2.23274 0.0517246 1 1
488 1 2.66191 16.9421 4.48782 9.23528 -0.922584 0.00798772 1 1
489 1 3.5642 14.3011 3.58139 2.31104 0.653835 8.41838 1 1
490 1 3.60621 16.0565 5.35225 -0.299503 -0.991235 -0.0940427 1 1
491 1 5.35991 14.2955 5.35872 1.51643 1.22975 -4.5598 1 1
492 1 5.32701 16.0716 3.53573 -1.13064 8.9511 9.07255 1 1
493 1 4.43322 15.1886 4.45811 -0.60758 4.1837 -2.58286 1 1
494 1 4.49796 16.908 6.28401 8.50315 4.63872 4.4671 1 1
495 1 6.26885 15.172 6.25401 9.8064 8.16746 7.02116 1 1
496 1 6.2751 16.9663 4.44181 -2.49353 2.60197 -2.93958 1 1
497 1 7.14268 14.2684 3.52889 -4.89524 -1.91816 -4.06347 1 1
498 1 7.15294 16.0607 5.35302 2.00914 2.63093 -3.31594 1 1
499 1 8.90349 14.227 5.34515 -8.63385 -0.193457 -2.15971 1 1
500 1 8.92192 16.0482 3.53173 -0.739806 4.93597 -8.31529 1 1
501 1 8.05435 15.1785 4.45634 -2.02787 1.57599 2.88105 1 1
502 1 8.01538 16.9117 6.2574 -3.95623 6.08044 1.68378 1 1
503 1 9.78611 15.1167 6.25286 5.39385 -3.3804 -2.19294 1 1
504 1 9.76553 16.9273 4.47278 -2.25717 -10.4019 2.2168 1 1
505 1 10.7167 14.2398 3.57002 -9.2489 -5.45278 5.5729 1 1
506 1 10.6398 16.0379 5.33044 -7.38586 -0.532055 -2.76708 1 1
507 1 12.4964 14.2537 5.37799 3.34619 0.777189 -2.53844 1 1
508 1 12.5028 16.0546 3.55119 -3.3628 2.71209 4.43958 1 1
509 1 11.6075 15.147 4.47012 6.86849 2.13804 -2.89824 1 1
510 1 11.5463 16.9358 6.24655 -0.858873 -1.46037 -9.29416 1 1
511 1 13.3695 15.1256 6.28789 6.10182 1.18349 1.00213 1 1
512 1 13.3803 16.9598 4.49077 -3.60914 5.20961 2.52303 1 1
513 1 14.2595 14.232 3.50013 1.22152 -2.23298 5.60726 1 1
514 1 14.2959 16.0608 5.37889 11.276 2.61466 0.135615 1 1
515 1 16.0274 14.2974 5.4075 1.73796 4.00822 -2.02877 1 1
516 1 16.0493 16.0902 3.53241 6.77187 0.158007 -0.302439 1 1
517 1 15.2045 15.1445 4.44301 2.70391 0.593996 -3.41426 1 1
518 1 15.1713 16.9239 6.27611 -1.98181 5.92336 -3.38214 1 1
519 1 16.9005 15.1955 6.31934 5.0237 7.95554 -0.774281 1 1
520 1 16.9465 16.9818 4.50865 -6.68146 2.98079 -1.32768 1 1
521 1 17.8007 14.319 3.61962 -3.31421 5.52149 2.53756 1 1
522 1 17.8024 16.0264 5.41223 -0.842042 1.48187 -0.282 1 1
523 1 19.5929 14.2368 5.40353 -2.58948 -1.71211 -6.83045 1 1
524 1 19.6928 16.0711 3.60043 -3.35425 -1.17961 2.29453 1 1
525 1 18.7251 15.1511 4.52325 1.79337 1.73535 3.4374 1 1
526 1 18.7022 16.9326 6.27816 -1.43375 -3.34341 1.59101 1 1
527 1 20.4767 15.1461 6.32734 0.233978 -9.94304 -8.03491 1 1
528 1 20.5528 16.9955 4.50784 4.42549 -4.54561 5.18221 1 1
529 1 0.0360134 17.8339 3.57728 -4.19163 0.729132 -1.15795 1 1
530 1 0.0466754 19.647 5.3339 3.86571 1.05981 5.46928 1 1
531 1 1.78306 17.801 5.38785 -4.18318 -2.70505 -3.58959 1 1
532 1 1.81068 19.6556 3.5964 -2.78453 3.3477 0.831645 1 1
533 1 0.898015 18.7491 4.44592 7.26751 -2.73411 4.10876 1 1
534 1 0.891089 20.5165 6.32085 14.7079 0.953302 -0.403654 1 1
535 1 2.66981 18.6967 6.2729 -1.91434 -3.27576 -9.51286 1 1
536 1 2.67834 20.5589 4.50688 -4.90362 -6.21405 0.151094 1 1
537 1 3.54953 17.8425 3.56024 5.24336 -1.19817 -3.22771 1 1
538 1 3.54353 19.6481 5.39613 2.78234 -6.05576 -1.1095 1 1
539 1 5.37998 17.8356 5.36059 -0.875484 11.67 2.13075 1 1
540 1 5.33043 19.6298 3.55784 -0.792375 6.39307 -1.65312 1 1
541 1 4.43832 18.7526 4.45481 1.6496 5.72319 -4.69713 1 1
542 1 4.43203 20.4922 6.3151 3.22872 1.78528 -2.70261 1 1
543 1 6.21556 18.7196 6.28586 -6.67427 2.74122 1.2781 1 1
544 1 6.24818 20.4964 4.45873 -5.41934 -6.67889 -4.3209 1 1
545 1 7.17854 17.8075 3.57146 -2.50027 1.07951 2.75456 1 1
546 1 7.07614 19.6393 5.3368 -5.69671 -3.98609 2.62641 1 1
547 1 8.90449 17.8296 5.38333 -1.91557 -2.80496 -0.434048 1 1
548 1 8.871 19.6409 3.6344 -3.88222 -2.79291 -2.17543 1 1
549 1 7.99043 18.7198 4.5212 -1.92006 1.38803 -1.59638 1 1
550 1 7.95014 20.4796 6.30542 -4.91595 -0.451725 -4.78851 1 1
551 1 9.77594 18.7667 6.26489 0.690985 -2.02839 -6.00116 1 1
552 1 9.78274 20.5099 4.50993 -4.89961 -3.05289 -1.12832 1 1
553 1 10.7066 17.8411 3.55619 0.677285 -1.20128 -6.65223 1 1
554 1 10.6854 19.6118 5.35169 3.58214 3.78522 3.75116 1 1
555 1 12.4798 17.8474 5.39882 -0.838086 -1.48733 -2.15817 1 1
556 1 12.4954 19.574 3.59912 -10.4034 -0.644391 -5.07111 1 1