ITEM: TIMESTEP
1050
ITEM: NUMBER OF ATOMS
2952
ITEM: BOX BOUNDS pp pp mm
0.0000000000000000e+00 2.1394294200000001e+01
0.0000000000000000e+00 2.1394294200000001e+01
-4.4571446250000002e-01 5.3485735500000004e+01
ITEM: ATOMS id type x y z vx vy vz v_is_diamond c_structure_type
1 1 0 0 0 0 0 0 1 3
2 1 1.78286 1.78286 0 0 0 0 1 3
3 1 0.891429 0.891429 0.891429 0 0 0 1 2
4 1 0.889124 2.71781 2.65315 -1.51104 4.55137 -5.93403 1 1
5 1 2.64596 0.911781 2.68275 -7.05297 7.62002 -3.39658 1 1
6 1 2.67429 2.67429 0.891429 0 0 0 1 2
7 1 21.392 1.81949 1.78863 10.2077 -8.69786 10.7855 1 1
8 1 1.78376 21.3893 1.80377 4.09689 2.46951 -4.42314 1 1
9 1 1.7924 3.57183 1.81998 0.367073 -4.61881 2.09715 1 1
10 1 3.55129 1.77303 1.79163 3.59624 -1.61808 -3.89363 1 1
11 1 3.56572 0 0 0 0 0 1 3
12 1 5.34857 1.78286 0 0 0 0 1 3
13 1 4.45714 0.891429 0.891429 0 0 0 1 2
14 1 4.46606 2.70105 2.72108 3.70568 -3.77044 1.56946 1 1
15 1 6.27171 0.876467 2.68514 -0.504526 -1.95373 -6.74159 1 1
16 1 6.24 2.67429 0.891429 0 0 0 1 2
17 1 7.1265 1.77836 1.80377 4.82396 -3.5065 4.38168 1 1
18 1 7.13143 0 0 0 0 0 1 3
19 1 8.02286 0.891429 0.891429 0 0 0 1 2
20 1 7.9925 2.67089 2.66858 -3.25927 2.75281 -3.57435 1 1
21 1 8.91429 1.78286 0 0 0 0 1 3
22 1 9.77437 0.860776 2.64642 -2.69807 1.60647 -5.46632 1 1
23 1 9.80572 2.67429 0.891429 0 0 0 1 2
24 1 8.91371 21.3582 1.79246 -8.01218 0.650832 1.71144 1 1
25 1 10.7035 1.79272 1.78897 8.12448 -5.33216 -7.89064 1 1
26 1 10.6971 0 0 0 0 0 1 3
27 1 12.48 1.78286 0 0 0 0 1 3
28 1 11.5886 0.891429 0.891429 0 0 0 1 2
29 1 11.5944 2.64056 2.67895 0.655267 1.46699 -6.16344 1 1
30 1 13.3527 0.902023 2.70228 10.1575 1.12466 -1.3937 1 1
31 1 13.3714 2.67429 0.891429 0 0 0 1 2
32 1 14.2726 1.77387 1.80906 -3.16661 3.02146 -4.5255 1 1
33 1 14.2629 0 0 0 0 0 1 3
34 1 16.0457 1.78286 0 0 0 0 1 3
35 1 15.1543 0.891429 0.891429 0 0 0 1 2
36 1 15.1788 2.62672 2.71311 3.35767 0.901739 1.49369 1 1
37 1 16.9503 0.903426 2.71265 -3.62376 2.68432 7.4423 1 1
38 1 16.9371 2.67429 0.891429 0 0 0 1 2
39 1 16.0575 21.3941 1.7585 2.52978 0.467637 0.60974 1 1
40 1 17.8398 1.77814 1.83325 0.317252 -1.39003 -5.98439 1 1
41 1 17.8286 0 0 0 0 0 1 3
42 1 19.6114 1.78286 0 0 0 0 1 3
43 1 18.72 0.891429 0.891429 0 0 0 1 2
44 1 18.6918 2.67882 2.68248 5.69978 3.19616 -6.63943 1 1
45 1 20.5344 0.902582 2.72418 3.66487 2.14721 -1.23213 1 1
46 1 20.5029 2.67429 0.891429 0 0 0 1 2
47 1 0 3.56572 0 0 0 0 1 3
48 1 1.78286 5.34857 0 0 0 0 1 3
49 1 0.891429 4.45714 0.891429 0 0 0 1 2
50 1 0.856633 6.20613 2.69487 -1.74177 1.9117 1.40561 1 1
51 1 2.67736 4.4382 2.70658 -4.2481 -2.91086 -2.46818 1 1
52 1 2.67429 6.24 0.891429 0 0 0 1 2
53 1 3.55087 5.365 1.81673 -1.09942 0.870852 5.11154 1 1
54 1 5.33043 3.59829 1.76923 -0.717448 4.05893 -8.73108 1 1
55 1 3.56572 3.56572 0 0 0 0 1 3
56 1 5.34857 5.34857 0 0 0 0 1 3
57 1 4.45714 4.45714 0.891429 0 0 0 1 2
58 1 4.48345 6.2522 2.69959 6.29416 4.69108 1.05711 1 1
59 1 6.22998 4.45519 2.68431 5.54169 -5.75575 0.519854 1 1
60 1 6.24 6.24 0.891429 0 0 0 1 2
61 1 5.36956 7.13332 1.82221 -1.73463 -8.7156 0.332381 1 1
62 1 7.12455 5.36498 1.80346 -6.5683 -6.25435 -0.567875 1 1
63 1 7.13143 3.56572 0 0 0 0 1 3
64 1 8.9104 3.55097 1.76776 -0.047944 4.66329 -5.98974 1 1
65 1 8.02286 4.45714 0.891429 0 0 0 1 2
66 1 8.02565 6.23215 2.68736 -1.55167 -5.13128 4.97521 1 1
67 1 8.91429 5.34857 0 0 0 0 1 3
68 1 9.81849 4.43335 2.74679 -8.39468 -1.57915 -6.21155 1 1
69 1 9.80572 6.24 0.891429 0 0 0 1 2
70 1 10.679 5.38068 1.81636 -6.60261 -3.39472 4.55754 1 1
71 1 12.4809 3.54119 1.78009 -0.663876 8.53395 6.32267 1 1
72 1 10.6971 3.56572 0 0 0 0 1 3
73 1 12.48 5.34857 0 0 0 0 1 3
74 1 11.5886 4.45714 0.891429 0 0 0 1 2
75 1 11.5746 6.27428 2.68305 -0.292488 4.29776 -5.28508 1 1
76 1 13.3613 4.48255 2.67893 3.15299 0.94416 8.9998 1 1
77 1 13.3714 6.24 0.891429 0 0 0 1 2
78 1 14.2532 5.33611 1.76877 -2.54475 6.83756 0.85352 1 1
79 1 16.0567 3.56153 1.82874 -3.73316 -5.74075 -0.661323 1 1
80 1 14.2629 3.56572 0 0 0 0 1 3
81 1 16.0457 5.34857 0 0 0 0 1 3
82 1 15.1543 4.45714 0.891429 0 0 0 1 2
83 1 15.1907 6.23793 2.63976 4.66663 -5.51388 -1.47624 1 1
84 1 16.9506 4.4665 2.70062 1.47695 -8.88 -6.89363 1 1
85 1 16.9371 6.24 0.891429 0 0 0 1 2
86 1 17.8755 5.30077 1.80024 -8.22715 -1.54945 4.48067 1 1
87 1 19.5837 3.55863 1.80231 -0.971673 -3.94526 -2.97495 1 1
88 1 21.3664 5.32059 1.79118 -3.72771 3.0274 -9.0257 1 1
89 1 17.8286 3.56572 0 0 0 0 1 3
90 1 19.6114 5.34857 0 0 0 0 1 3
91 1 18.72 4.45714 0.891429 0 0 0 1 2
92 1 18.7223 6.2282 2.65161 -8.05192 5.66901 -0.0142231 1 1
93 1 20.5154 4.44305 2.66266 -0.801152 -2.82328 3.55143 1 1
94 1 20.5029 6.24 0.891429 0 0 0 1 2
95 1 19.6209 7.11798 1.74649 2.26644 -5.00557 2.12525 1 1
96 1 1.77767 7.11742 1.78048 -5.94687 2.30029 -0.893495 1 1
97 1 0 7.13143 0 0 0 0 1 3
98 1 0.891429 8.02286 0.891429 0 0 0 1 2
99 1 2.67097 8.01565 2.69116 -3.63747 2.75182 -5.57083 1 1
100 1 1.78286 8.91429 0 0 0 0 1 3
101 1 0.930581 9.7976 2.70489 -5.44703 1.02579 1.00516 1 1
102 1 2.67429 9.80572 0.891429 0 0 0 1 2
103 1 1.80201 10.6917 1.79645 4.61614 3.75351 5.29993 1 1
104 1 3.54231 8.92893 1.75988 -11.9467 0.97515 -8.11617 1 1
105 1 3.56572 7.13143 0 0 0 0 1 3
106 1 4.45714 8.02286 0.891429 0 0 0 1 2
107 1 6.32197 7.98991 2.73386 -2.2559 1.38946 -11.1003 1 1
108 1 5.34857 8.91429 0 0 0 0 1 3
109 1 4.40009 9.7983 2.69005 -5.53476 -1.0553 -5.68102 1 1
110 1 6.24 9.80572 0.891429 0 0 0 1 2
111 1 7.14386 8.91777 1.83654 -2.04004 -2.66079 6.68383 1 1
112 1 8.89321 7.15252 1.7543 4.0868 0.779452 1.8093 1 1
113 1 7.13143 7.13143 0 0 0 0 1 3
114 1 8.02286 8.02286 0.891429 0 0 0 1 2
115 1 9.82719 8.01792 2.70547 4.07872 1.19899 0.405364 1 1
116 1 8.02914 9.81651 2.70673 -0.818855 7.51335 4.18019 1 1
117 1 8.91429 8.91429 0 0 0 0 1 3
118 1 9.80572 9.80572 0.891429 0 0 0 1 2
119 1 10.7077 8.89876 1.81676 -4.05763 5.71408 -4.24945 1 1
120 1 12.4476 7.14709 1.79522 0.480108 2.28493 -3.50843 1 1
121 1 10.6971 7.13143 0 0 0 0 1 3
122 1 11.5886 8.02286 0.891429 0 0 0 1 2
123 1 13.3343 8.0115 2.67873 -3.54275 -2.11961 -1.643 1 1
124 1 12.48 8.91429 0 0 0 0 1 3
125 1 11.581 9.84132 2.67629 0.283818 -2.24864 -5.18663 1 1
126 1 13.3714 9.80572 0.891429 0 0 0 1 2
127 1 12.4593 10.6842 1.77646 -1.63251 -2.98631 -3.44219 1 1
128 1 16.0376 7.1794 1.78976 0.501419 -5.95128 2.34021 1 1
129 1 14.2407 8.93452 1.79353 4.91283 0.592391 -2.05282 1 1
130 1 14.2629 7.13143 0 0 0 0 1 3
131 1 15.1543 8.02286 0.891429 0 0 0 1 2
132 1 16.9409 8.00518 2.69475 4.72295 -0.454945 -2.23346 1 1
133 1 16.0457 8.91429 0 0 0 0 1 3
134 1 15.1854 9.79381 2.68007 2.79866 -5.68532 5.61085 1 1
135 1 16.9371 9.80572 0.891429 0 0 0 1 2
136 1 16.0277 10.6864 1.80789 2.18325 -5.98727 -6.5766 1 1
137 1 17.83 8.91736 1.77455 2.28065 2.43266 2.42418 1 1
138 1 21.3807 8.94721 1.82729 -1.06389 1.27774 -1.41718 1 1
139 1 17.8286 7.13143 0 0 0 0 1 3
140 1 18.72 8.02286 0.891429 0 0 0 1 2
141 1 20.4854 8.01804 2.69001 -5.09237 -0.161279 1.20971 1 1
142 1 19.6114 8.91429 0 0 0 0 1 3
143 1 18.7237 9.80863 2.67989 -1.64658 -3.82126 4.69661 1 1
144 1 20.5029 9.80572 0.891429 0 0 0 1 2
145 1 0 10.6971 0 0 0 0 1 3
146 1 1.78286 12.48 0 0 0 0 1 3
147 1 0.891429 11.5886 0.891429 0 0 0 1 2
148 1 2.63206 11.6218 2.72083 7.15723 -7.51684 -1.55145 1 1
149 1 0.890924 13.3843 2.71079 -6.05555 0.449556 -3.49571 1 1
150 1 2.67429 13.3714 0.891429 0 0 0 1 2
151 1 0.0331479 12.4921 1.79853 6.17342 -7.17193 -7.88392 1 1
152 1 5.33822 10.6753 1.78412 -2.18523 -2.88807 2.36109 1 1
153 1 3.58958 12.5238 1.8119 -1.60681 -0.327629 -1.18392 1 1
154 1 3.56572 10.6971 0 0 0 0 1 3
155 1 5.34857 12.48 0 0 0 0 1 3
156 1 4.45714 11.5886 0.891429 0 0 0 1 2
157 1 6.20089 11.5717 2.6823 -3.47286 1.77528 -8.74034 1 1
158 1 4.49601 13.3939 2.68446 4.99043 2.69162 0.177347 1 1
159 1 6.24 13.3714 0.891429 0 0 0 1 2
160 1 5.36133 14.2613 1.75978 -2.2824 1.01392 -1.57574 1 1
161 1 8.9287 10.7081 1.75208 0.0928014 2.20611 -6.87987 1 1
162 1 7.13734 12.4792 1.77222 -7.85919 -2.90466 8.02799 1 1
163 1 7.13143 10.6971 0 0 0 0 1 3
164 1 8.02286 11.5886 0.891429 0 0 0 1 2
165 1 8.91429 12.48 0 0 0 0 1 3
166 1 9.83457 11.6417 2.66464 3.90361 -5.6267 0.308416 1 1
167 1 7.9997 13.347 2.66475 5.67323 -1.49604 2.44491 1 1
168 1 9.80572 13.3714 0.891429 0 0 0 1 2
169 1 10.7311 12.5023 1.75265 0.1764 -0.355302 4.04816 1 1
170 1 10.6971 10.6971 0 0 0 0 1 3
171 1 12.48 12.48 0 0 0 0 1 3
172 1 11.5886 11.5886 0.891429 0 0 0 1 2
173 1 13.3427 11.6338 2.68188 1.36744 0.738674 0.44855 1 1
174 1 11.5986 13.3726 2.65081 0.581245 0.689554 5.39151 1 1
175 1 13.3714 13.3714 0.891429 0 0 0 1 2
176 1 12.4764 14.2757 1.78074 -2.79015 2.96572 -5.09468 1 1
177 1 14.2447 12.4891 1.80126 -1.29069 -7.62929 -13.1126 1 1
178 1 14.2629 10.6971 0 0 0 0 1 3
179 1 16.0457 12.48 0 0 0 0 1 3
180 1 15.1543 11.5886 0.891429 0 0 0 1 2
181 1 16.9772 11.5734 2.67838 6.64966 -1.40813 -3.76389 1 1
182 1 15.16 13.3743 2.70533 -5.52469 -6.63642 -3.89851 1 1
183 1 16.9371 13.3714 0.891429 0 0 0 1 2
184 1 17.8649 12.4356 1.77005 -7.15839 2.68943 2.62635 1 1
185 1 19.6584 10.7065 1.76608 1.07459 7.99986 -6.20706 1 1
186 1 17.8286 10.6971 0 0 0 0 1 3
187 1 19.6114 12.48 0 0 0 0 1 3
188 1 18.72 11.5886 0.891429 0 0 0 1 2
189 1 20.5482 11.5499 2.71176 0.809671 0.290469 -3.59178 1 1
190 1 18.7325 13.3684 2.68458 -5.5528 -1.08033 9.93584 1 1
191 1 20.5029 13.3714 0.891429 0 0 0 1 2
192 1 19.5715 14.2378 1.77441 -4.818 3.37891 -3.94876 1 1
193 1 1.79106 14.3254 1.80982 2.27144 3.14602 3.91374 1 1
194 1 0 14.2629 0 0 0 0 1 3
195 1 1.78286 16.0457 0 0 0 0 1 3
196 1 0.891429 15.1543 0.891429 0 0 0 1 2
197 1 0.874299 16.89 2.70116 -1.17043 0.305202 -10.6412 1 1
198 1 2.69227 15.1775 2.6891 -11.206 2.52709 1.56466 1 1
199 1 2.67429 16.9371 0.891429 0 0 0 1 2
200 1 21.4082 16.0666 1.75715 7.22764 -1.94787 -0.580464 1 1
201 1 3.58424 16.0492 1.77123 -8.48377 5.29914 -5.39826 1 1
202 1 3.56572 14.2629 0 0 0 0 1 3
203 1 5.34857 16.0457 0 0 0 0 1 3
204 1 4.45714 15.1543 0.891429 0 0 0 1 2
205 1 4.46206 16.932 2.68495 -0.455101 -2.89468 -1.40862 1 1
206 1 6.25415 15.1652 2.70304 -8.17764 0.0748264 0.579966 1 1
207 1 6.24 16.9371 0.891429 0 0 0 1 2
208 1 7.12914 16.0127 1.81732 7.05603 -1.6621 1.15884 1 1
209 1 5.36346 17.8244 1.79561 1.46996 -6.11395 1.52051 1 1
210 1 8.918 14.2702 1.79692 4.22233 2.86372 -2.13388 1 1
211 1 7.13143 14.2629 0 0 0 0 1 3
212 1 8.02286 15.1543 0.891429 0 0 0 1 2
213 1 8.01201 16.9385 2.69936 14.1436 4.60784 -4.53057 1 1
214 1 8.91429 16.0457 0 0 0 0 1 3
215 1 9.76258 15.1928 2.75433 0.309018 4.56445 -2.13132 1 1
216 1 9.80572 16.9371 0.891429 0 0 0 1 2
217 1 8.92105 17.8223 1.75088 2.98071 -4.38377 -2.25442 1 1
218 1 10.6811 16.0901 1.78651 10.2047 -1.9277 -2.78888 1 1
219 1 10.6971 14.2629 0 0 0 0 1 3
220 1 12.48 16.0457 0 0 0 0 1 3
221 1 11.5886 15.1543 0.891429 0 0 0 1 2
222 1 11.6141 16.9534 2.6845 3.25411 2.6014 -4.97308 1 1
223 1 13.38 15.1687 2.6402 0.73419 -1.64038 7.09153 1 1
224 1 13.3714 16.9371 0.891429 0 0 0 1 2
225 1 12.4954 17.8074 1.76921 -1.05435 -5.51593 -1.93669 1 1
226 1 16.0658 14.2912 1.82101 -4.13443 -5.33087 -4.33241 1 1
227 1 14.281 16.0456 1.80601 -3.14084 2.57098 -3.91596 1 1
228 1 14.2629 14.2629 0 0 0 0 1 3
229 1 16.0457 16.0457 0 0 0 0 1 3
230 1 15.1543 15.1543 0.891429 0 0 0 1 2
231 1 15.1249 16.9707 2.70142 -0.892651 -1.00137 0.701193 1 1
232 1 16.9491 15.1439 2.73256 4.38674 7.06389 1.20965 1 1
233 1 16.9371 16.9371 0.891429 0 0 0 1 2
234 1 17.8399 16.0059 1.76413 6.49002 -5.87867 0.879051 1 1
235 1 17.8286 14.2629 0 0 0 0 1 3
236 1 19.6114 16.0457 0 0 0 0 1 3
237 1 18.72 15.1543 0.891429 0 0 0 1 2
238 1 18.7083 16.9604 2.65675 3.22851 -2.06959 2.6135 1 1
239 1 20.5108 15.1708 2.61547 1.38331 -6.48553 -1.63037 1 1
240 1 20.5029 16.9371 0.891429 0 0 0 1 2
241 1 19.6039 17.8308 1.75273 4.97618 -7.70187 -9.32609 1 1
242 1 1.79749 17.8219 1.79571 2.08277 1.12808 -7.2754 1 1
243 1 0 17.8286 0 0 0 0 1 3
244 1 1.78286 19.6114 0 0 0 0 1 3
245 1 0.891429 18.72 0.891429 0 0 0 1 2
246 1 0.882603 20.4843 2.72375 -5.41399 12.8728 3.02774 1 1
247 1 2.66456 18.7012 2.71923 0.936967 3.99599 5.47164 1 1
248 1 2.67429 20.5029 0.891429 0 0 0 1 2
249 1 3.52856 19.5859 1.82569 -5.64914 -4.89007 5.53527 1 1
250 1 21.403 19.585 1.82321 3.40744 -3.52593 5.82262 1 1
251 1 5.33658 21.3714 1.78736 -4.29118 -7.82101 -2.98719 1 1
252 1 3.56572 17.8286 0 0 0 0 1 3
253 1 5.34857 19.6114 0 0 0 0 1 3
254 1 4.45714 18.72 0.891429 0 0 0 1 2
255 1 4.47834 20.5006 2.67382 8.67637 -0.587988 -1.66883 1 1
256 1 6.29152 18.7455 2.72725 1.52655 0.161874 6.32824 1 1
257 1 6.24 20.5029 0.891429 0 0 0 1 2
258 1 7.16584 19.6084 1.81417 -5.98371 -0.371646 5.91067 1 1
259 1 7.13143 17.8286 0 0 0 0 1 3
260 1 8.02286 18.72 0.891429 0 0 0 1 2
261 1 8.04087 20.5117 2.66753 3.49325 0.847695 1.52907 1 1
262 1 8.91429 19.6114 0 0 0 0 1 3
263 1 9.82995 18.7305 2.70295 3.01897 2.18123 1.52021 1 1
264 1 9.80572 20.5029 0.891429 0 0 0 1 2
265 1 10.7411 19.6197 1.80359 3.72377 9.06845 1.53732 1 1
266 1 12.4866 0.0161258 1.85413 -6.68133 -3.85435 -0.263694 1 1
267 1 10.6971 17.8286 0 0 0 0 1 3
268 1 12.48 19.6114 0 0 0 0 1 3
269 1 11.5886 18.72 0.891429 0 0 0 1 2
270 1 11.6485 20.4704 2.73959 2.69154 -1.96014 -3.65727 1 1
271 1 13.3865 18.7534 2.67936 4.67333 -2.55295 1.89895 1 1
272 1 13.3714 20.5029 0.891429 0 0 0 1 2
273 1 14.2407 19.6669 1.80844 -4.62536 -1.85426 -1.85862 1 1
274 1 16.0083 17.8367 1.83279 -6.9091 5.82823 -2.22408 1 1
275 1 14.2629 17.8286 0 0 0 0 1 3
276 1 16.0457 19.6114 0 0 0 0 1 3
277 1 15.1543 18.72 0.891429 0 0 0 1 2
278 1 15.1493 20.5139 2.69257 10.0192 -0.752595 -0.371868 1 1
279 1 16.9213 18.7521 2.7116 5.61984 -1.00515 -3.01994 1 1
280 1 16.9371 20.5029 0.891429 0 0 0 1 2
281 1 19.6371 0.0170356 1.79625 3.61288 2.49916 -6.61323 1 1
282 1 17.8289 19.647 1.79113 1.0568 -4.34233 3.65479 1 1
283 1 17.8286 17.8286 0 0 0 0 1 3
284 1 19.6114 19.6114 0 0 0 0 1 3
285 1 18.72 18.72 0.891429 0 0 0 1 2
286 1 18.7508 20.5344 2.71611 -6.14789 3.3397 2.20199 1 1
287 1 20.4723 18.7395 2.6906 -4.00696 6.38697 -5.26508 1 1
288 1 20.5029 20.5029 0.891429 0 0 0 1 2
289 1 1.81606 1.80335 3.54275 -5.34919 -7.96504 0.714406 1 1
290 1 0.897966 0.887645 4.44537 1.75409 -1.87171 -0.732705 1 1
291 1 2.69257 2.69223 4.48702 9.21682 5.30282 -9.71351 1 1
292 1 1.76314 21.4027 5.35053 -4.0371 5.57529 -5.83408 1 1
293 1 1.77792 3.58984 5.37485 3.41279 -1.77992 -1.76246 1 1
294 1 0.0179882 1.79653 5.38725 -4.22355 -5.93665 2.60091 1 1
295 1 21.3806 21.4234 3.59565 7.20657 12.4337 -12.6308 1 1
296 1 3.55701 1.74829 5.3403 -0.745611 -4.1556 5.56373 1 1
297 1 5.35964 1.78753 3.61367 -11.2067 10.6231 3.47019 1 1
298 1 4.45154 0.872096 4.45408 -0.924645 -7.68314 -7.55044 1 1
299 1 6.22698 0.896098 6.2512 3.09417 -3.00632 0.308865 1 1
300 1 6.26594 2.72542 4.4702 3.27357 -1.44759 2.93635 1 1
301 1 3.56268 0.0185699 3.60814 -1.71444 0.428685 7.72331 1 1
302 1 7.16003 0.0139601 3.53306 -0.403102 -5.76196 2.99985 1 1
303 1 5.42391 21.3879 5.36719 3.95843 2.51239 -5.75521 1 1
304 1 7.13253 3.59071 3.56596 -7.46599 0.829543 5.64666 1 1
305 1 7.19692 1.78794 5.3675 6.95673 4.87243 2.16594 1 1
306 1 8.88621 1.77352 3.52385 0.663289 -0.209466 -6.44746 1 1
307 1 8.06598 0.891807 4.46189 1.34248 -1.23306 -9.63876 1 1
308 1 8.06307 2.69373 6.2891 1.06168 6.10616 -8.88029 1 1
309 1 9.83748 0.917723 6.26487 6.63655 -5.85044 3.09514 1 1
310 1 9.8007 2.65222 4.46629 4.58318 -0.278774 -5.54221 1 1
311 1 10.6998 1.78385 5.41448 -8.39291 7.46621 -5.42001 1 1
312 1 12.4598 1.80356 3.60819 0.476533 4.25011 0.261454 1 1
313 1 11.5544 0.915493 4.48314 -1.16033 2.31592 4.67006 1 1
314 1 11.5739 2.69462 6.31291 2.13868 2.15092 -5.81905 1 1
315 1 13.3497 2.66471 4.52441 -0.3376 -3.18607 3.69385 1 1
316 1 13.3931 0.875595 6.28243 3.72359 0.325836 -8.45172 1 1
317 1 12.5244 3.60967 5.40324 -4.8284 2.08071 -2.27829 1 1
318 1 14.2445 1.80723 5.40053 -2.2049 -8.25192 4.83914 1 1
319 1 12.4662 21.396 5.37168 -3.66674 6.1583 1.10008 1 1
320 1 14.2597 3.51561 3.59222 -9.30101 -0.923686 1.35902 1 1
321 1 16.0151 1.78575 3.63677 4.40935 -1.21588 3.10321 1 1
322 1 15.153 0.909323 4.50026 2.20662 2.47162 -2.99877 1 1
323 1 15.1603 2.72165 6.33025 5.67222 4.75291 -6.32741 1 1
324 1 17.006 2.66941 4.52604 5.22832 1.87985 3.26826 1 1
325 1 17.8693 1.75941 5.40949 5.31908 -0.388737 0.900626 1 1
326 1 16.0417 0.00210254 5.38941 2.41763 0.273033 -0.844597 1 1
327 1 19.5907 1.81543 3.61313 -2.75597 -4.13541 1.37903 1 1
328 1 18.7766 0.868875 4.46458 -4.38265 -0.210722 -11.4508 1 1
329 1 20.5266 2.70439 4.47214 1.04524 -2.45007 1.7067 1 1
330 1 17.8715 0.00790892 3.65729 5.73309 -7.66691 -0.0982534 1 1
331 1 19.6364 0.00562183 5.43792 -6.67959 -3.4085 4.39349 1 1
332 1 0.01276 3.56981 3.57281 0.569585 2.54451 -8.53929 1 1
333 1 1.80322 5.35631 3.613 2.57416 2.56816 2.45545 1 1
334 1 0.892756 4.48308 4.4738 3.48078 -8.53677 1.43461 1 1
335 1 2.65965 4.50157 6.27531 1.49063 0.349615 -2.73525 1 1
336 1 2.67609 6.20455 4.47544 -1.8561 1.7911 -0.793391 1 1
337 1 3.54738 3.61275 3.64019 -2.22495 2.95536 0.0321913 1 1
338 1 21.3837 5.31089 5.38985 3.44107 0.139303 -1.4565 1 1
339 1 3.54467 5.38026 5.40804 2.97556 1.25443 -1.01505 1 1
340 1 5.35648 3.57039 5.38537 3.10496 -1.25297 2.61597 1 1
341 1 5.34841 5.33865 3.59402 3.10802 -1.64282 1.91056 1 1
342 1 4.45341 4.47584 4.49729 -8.28412 -0.0837565 5.49367 1 1
343 1 4.46581 6.24762 6.31387 -0.870082 -2.15446 -4.03928 1 1
344 1 6.25332 6.24304 4.47598 6.81543 4.59518 1.04107 1 1
345 1 7.11456 5.33632 5.3734 -8.8309 2.92587 -4.5874 1 1
346 1 5.29593 7.11323 5.40657 0.980086 3.96783 1.20859 1 1
347 1 6.25824 4.44063 6.2494 9.00463 0.12082 0.0774666 1 1
348 1 8.92395 3.57804 5.3558 -7.78202 -2.81323 -6.60196 1 1
349 1 10.7057 3.52279 3.60037 9.19484 3.28244 -4.25071 1 1
350 1 8.93928 5.38902 3.59542 -6.10358 -4.98401 -2.40528 1 1
351 1 8.04092 4.47433 4.48782 6.15264 0.191177 -3.94986 1 1
352 1 8.05245 6.24965 6.224 5.05673 0.808739 1.34254 1 1
353 1 9.8027 4.46604 6.25735 -3.34614 -1.8848 0.209925 1 1
354 1 9.82679 6.28211 4.49989 6.78506 -3.79087 1.58373 1 1
355 1 10.6901 5.339 5.39792 -3.90136 1.67668 -7.08105 1 1
356 1 12.4625 5.34696 3.61922 6.21783 -1.26683 0.0914981 1 1
357 1 11.6224 4.46837 4.51396 3.98293 2.53299 2.40492 1 1
358 1 13.4056 6.23553 4.45232 7.38711 3.60452 5.13902 1 1
359 1 14.2983 5.3869 5.42956 0.0349074 -0.614419 3.36397 1 1
360 1 16.0344 3.59946 5.46142 2.13012 8.15295 0.469068 1 1
361 1 17.838 3.56505 3.60496 -0.848905 -7.68497 -1.08424 1 1
362 1 16.0879 5.37508 3.57151 -1.71781 3.97903 -1.67385 1 1
363 1 15.1629 4.44939 4.4894 11.336 -3.00233 3.12911 1 1
364 1 16.9253 6.26031 4.48141 11.859 -3.85614 -1.87044 1 1
365 1 16.9285 4.50959 6.30725 -0.414695 -2.55627 -2.4604 1 1
366 1 16.0639 7.16938 5.38077 -1.40315 -0.402828 2.69075 1 1
367 1 15.1662 6.29012 6.29718 0.248402 1.79244 -3.46035 1 1
368 1 19.6359 3.5972 5.39356 1.39453 -2.01694 -7.96496 1 1
369 1 17.827 5.38789 5.39476 5.31342 1.68326 -5.43307 1 1
370 1 19.6379 5.40215 3.5835 6.70461 3.42998 -2.24004 1 1
371 1 18.7045 4.45289 4.47963 7.09335 -5.23925 1.17243 1 1
372 1 20.4924 4.46359 6.2847 -3.506 1.14617 -2.88638 1 1
373 1 20.5078 6.29717 4.53886 -1.42544 -7.39751 -1.8144 1 1
374 1 19.5688 7.09828 5.42595 -0.354535 4.47465 4.10347 1 1
375 1 21.3831 7.15549 3.54696 5.12135 3.03975 -2.33784 1 1
376 1 1.78635 7.11575 5.38934 -4.80936 -2.26581 6.38319 1 1
377 1 1.77221 8.90638 3.59057 -0.135274 1.76266 -0.560117 1 1
378 1 0.881082 7.99656 4.49554 0.953022 4.73011 -4.62655 1 1
379 1 2.62706 8.00035 6.27277 -5.29794 5.02164 -0.760429 1 1
380 1 0.932636 9.79722 6.3004 -4.06765 1.66255 2.29048 1 1
381 1 2.6866 9.81067 4.48358 -4.52693 -9.64184 0.645488 1 1
382 1 21.3703 8.91288 5.37414 -0.420352 10.1441 -4.05176 1 1
383 1 1.76761 10.6733 5.38145 -8.67001 2.49967 3.40272 1 1
384 1 3.57178 7.11378 3.52826 -3.10041 -0.0471218 -2.72216 1 1
385 1 7.1615 7.11121 3.63816 -2.42398 -6.66681 2.2832 1 1
386 1 3.51793 10.6986 3.61021 1.09095 -9.48639 -0.849412 1 1
387 1 3.51787 8.91027 5.38842 -5.11403 -2.18458 10.4641 1 1
388 1 5.34669 8.88928 3.6408 -7.43689 3.42047 -1.12688 1 1
389 1 4.42599 8.05443 4.53096 5.41766 -5.5457 4.63977 1 1
390 1 4.42453 9.80692 6.30829 2.21022 -3.73594 -8.05017 1 1
391 1 6.23998 9.82563 4.51222 2.28608 1.00678 -1.97521 1 1
392 1 8.96304 7.13363 5.40172 -1.10942 -0.2573 -2.99949 1 1
393 1 7.17236 8.95909 5.42982 2.51323 4.62744 1.95692 1 1
394 1 8.97554 8.9077 3.59978 -7.67403 -0.51409 0.953989 1 1
395 1 8.07227 8.01724 4.51071 -1.7186 3.78574 6.30397 1 1
396 1 9.85346 9.81513 4.50839 -2.48639 -0.404653 3.58943 1 1
397 1 10.7573 8.90862 5.35088 2.83598 -5.86377 -2.51135 1 1
398 1 10.7404 10.7193 3.60804 -3.64152 0.467975 -8.43878 1 1
399 1 9.8531 8.00234 6.25852 -4.21117 -1.92257 -8.28572 1 1
400 1 12.4995 7.1275 5.34798 9.11378 -1.14139 -4.0542 1 1
401 1 10.6495 7.16405 3.56118 0.567769 -0.616703 -1.81486 1 1
402 1 12.4776 8.90173 3.58969 1.57046 0.848057 -1.67052 1 1
403 1 11.5858 8.03535 4.44936 -2.39371 -11.6653 -0.47721 1 1
404 1 13.3664 9.83841 4.47449 0.839695 1.01147 -3.28335 1 1
405 1 14.2869 7.14214 3.51291 -5.23088 -3.70492 -6.48028 1 1
406 1 14.2442 8.90884 5.37484 -3.27236 2.52074 0.28414 1 1
407 1 17.7717 7.17923 3.599 -7.40484 -0.808517 1.10839 1 1
408 1 16.0523 8.91813 3.59158 0.113033 -2.65852 -0.34732 1 1
409 1 15.1866 8.02168 4.49988 6.67016 -0.566778 -0.276714 1 1
410 1 16.9174 9.81324 4.45807 5.85667 4.43675 -1.72469 1 1
411 1 16.0452 10.723 5.32764 -0.758868 -0.178035 0.738079 1 1
412 1 16.9355 8.05648 6.2975 1.42064 7.73451 -0.178637 1 1
413 1 17.8301 8.87395 5.37851 4.79698 -2.83887 -5.33822 1 1
414 1 19.634 8.90856 3.58714 4.02738 4.64277 -10.0018 1 1
415 1 18.7335 8.0086 4.46999 5.96546 -4.04044 -4.21803 1 1
416 1 18.7509 9.80271 6.26454 -2.08553 2.96062 -0.0309705 1 1
417 1 20.5103 9.80054 4.4817 3.92651 -8.0871 1.83919 1 1
418 1 20.5026 8.03756 6.30553 1.63506 2.5341 -3.08174 1 1
419 1 19.6275 10.6805 5.3513 0.994023 -0.695703 -3.08541 1 1
420 1 0.0669806 10.6822 3.61272 -4.12481 -3.21181 -1.11654 1 1
421 1 1.79939 12.507 3.56738 2.84281 7.31804 -3.388 1 1
422 1 0.921282 11.5799 4.45311 -7.68865 -2.90441 -5.63699 1 1
423 1 2.71707 11.6014 6.28986 -4.58852 -9.3677 0.480245 1 1
424 1 0.885349 13.3893 6.29737 1.76856 5.53134 3.94432 1 1
425 1 2.68635 13.385 4.48245 -2.05776 -1.98339 5.84431 1 1
426 1 0.0322032 12.4541 5.34972 4.10567 0.199258 -5.20674 1 1
427 1 5.38983 10.7256 5.41314 -5.50151 -0.427428 1.39373 1 1
428 1 3.56994 14.2811 3.59287 5.20089 -7.28567 -8.05997 1 1
429 1 3.61828 12.4768 5.3799 4.44021 -10.8039 8.2068 1 1
430 1 5.36402 12.5179 3.59819 0.163903 -3.8839 7.24755 1 1
431 1 4.49466 11.586 4.47846 -2.08246 -5.29658 -6.79066 1 1
432 1 6.22436 13.3709 4.51521 -1.22786 1.23355 -5.00266 1 1
433 1 7.1394 14.2314 3.65679 4.3683 -5.74579 -0.348908 1 1
434 1 6.25256 11.6259 6.28676 3.04022 -6.54179 6.24678 1 1
435 1 7.14602 10.6791 3.57291 -3.81505 -6.83297 -3.3504 1 1
436 1 7.14309 12.478 5.43481 -4.14099 -1.50808 -7.45032 1 1
437 1 8.92856 10.7222 5.37258 -1.48882 2.78076 6.0949 1 1
438 1 8.87647 12.5322 3.58988 2.64399 1.59538 -3.66458 1 1
439 1 8.03716 11.6248 4.50293 7.40982 1.06356 -1.12426 1 1
440 1 9.81521 11.605 6.24285 5.6331 8.00449 -2.00786 1 1
441 1 8.06762 13.3998 6.30526 6.30877 -6.61802 -2.13215 1 1
442 1 9.79488 13.3742 4.48085 -10.2307 -1.12475 -1.32334 1 1
443 1 10.6895 14.2617 3.57045 0.00701976 -1.4648 -2.99346 1 1
444 1 12.4863 10.7329 5.35765 -0.813488 0.423663 -5.55973 1 1
445 1 10.7404 12.5071 5.39936 -4.48202 0.209423 1.58367 1 1
446 1 12.4722 12.5245 3.59382 -1.90758 2.7128 -2.21405 1 1
447 1 11.6168 11.623 4.5283 -2.47845 5.59154 0.0578494 1 1
448 1 13.3622 11.605 6.29556 -11.1215 4.6939 -1.18977 1 1
449 1 11.5205 13.4148 6.28284 -1.47504 3.65618 0.668852 1 1
450 1 13.3586 13.3904 4.49651 -0.770586 -4.71574 -4.46826 1 1
451 1 14.2506 10.7285 3.57529 4.69269 2.60586 -2.1984 1 1
452 1 14.3264 12.4862 5.38945 -2.77348 -3.15238 -5.36105 1 1
453 1 16.0512 12.4462 3.5732 4.11761 -5.34607 -4.49962 1 1
454 1 15.1545 11.6128 4.45237 1.65023 -1.10924 -0.107505 1 1
455 1 16.9428 11.5833 6.27967 0.964311 4.51791 -1.94783 1 1
456 1 17.0013 13.3868 4.50485 -2.75669 -3.15571 3.11841 1 1
457 1 17.8831 12.4401 5.40854 -1.15112 1.35939 4.28065 1 1
458 1 15.1671 13.3643 6.31374 -8.98466 -7.51593 -0.206011 1 1
459 1 17.869 10.6661 3.5728 -0.760985 8.83922 -11.8646 1 1
460 1 19.6247 12.4224 3.57587 0.887414 -0.689696 0.43632 1 1
461 1 18.7506 11.5353 4.4452 -1.59025 -0.0913173 8.95733 1 1
462 1 18.7708 13.3607 6.26562 -3.68182 -1.41387 -3.91702 1 1
463 1 20.4984 13.3217 4.45975 0.655001 0.454723 -2.62693 1 1
464 1 20.541 11.5804 6.26899 -7.17589 2.61839 3.35825 1 1
465 1 1.83758 14.2408 5.3895 -0.705036 1.08772 -9.46996 1 1
466 1 1.75 15.984 3.57281 3.07249 -4.06401 4.09975 1 1
467 1 0.897092 15.1234 4.46315 -5.44831 9.81298 2.3925 1 1
468 1 2.63236 15.1636 6.24661 -5.30192 -11.3534 -4.93146 1 1
469 1 2.64787 16.9339 4.48431 -5.64664 0.349905 -5.84827 1 1
470 1 21.3867 16.0638 5.42511 -0.823809 -2.64916 -1.11234 1 1
471 1 21.3552 14.2258 3.57258 -6.64526 10.9838 -2.01922 1 1
472 1 1.77735 17.8686 5.38304 -1.20434 1.0789 -6.84572 1 1
473 1 5.28084 14.2613 5.37083 -6.65262 7.60461 -0.0800348 1 1
474 1 3.52053 16.0295 5.36366 -2.74037 0.112219 3.78298 1 1
475 1 5.3674 16.0264 3.61251 2.47213 0.869174 -4.43267 1 1
476 1 4.41002 15.153 4.44636 2.35473 4.26673 -3.19641 1 1
477 1 4.4779 16.9118 6.26728 -4.11982 7.12727 -0.496503 1 1
478 1 6.21935 15.1341 6.27554 -6.34511 -1.11598 -4.51958 1 1
479 1 6.23022 16.8881 4.49403 2.84629 0.727477 11.0232 1 1
480 1 7.11352 16.0372 5.41372 3.99358 -2.34422 1.06515 1 1
481 1 8.95271 14.3035 5.41559 2.93729 -0.189728 1.78348 1 1
482 1 8.88533 16.1104 3.62348 3.64035 -3.78566 5.29578 1 1
483 1 8.02039 15.1728 4.55447 0.273184 -9.39471 -11.2802 1 1
484 1 7.98456 16.9473 6.29451 0.67771 -1.30494 4.34955 1 1
485 1 9.81433 15.1959 6.30451 -6.48491 1.85132 -0.104649 1 1
486 1 9.81945 16.9775 4.51881 -3.61959 7.27532 -4.52164 1 1
487 1 10.7139 16.0733 5.41564 1.09326 -3.99375 -7.67566 1 1
488 1 8.89943 17.8111 5.43077 1.92409 -0.286958 3.64097 1 1
489 1 10.7351 17.8348 3.62186 1.17641 -2.83078 8.37437 1 1
490 1 12.4637 14.2985 5.40193 5.40948 1.97921 -4.06253 1 1
491 1 12.5038 16.0971 3.59245 -0.0802589 13.0653 5.01562 1 1
492 1 11.6222 15.2058 4.45254 -6.7551 0.895616 -7.18175 1 1
493 1 11.613 16.9573 6.31214 -10.403 3.29393 3.11679 1 1
494 1 13.3822 16.9834 4.48862 -0.893101 -3.09964 2.19007 1 1
495 1 13.3794 15.1568 6.31753 7.76985 -1.73399 3.06419 1 1
496 1 12.4983 17.8792 5.40683 -2.14518 -0.137891 -3.25137 1 1
497 1 14.2957 14.2586 3.60672 0.548848 -0.20902 2.20371 1 1
498 1 16.0822 14.2498 5.43192 5.1235 -1.69066 -3.66776 1 1
499 1 17.8451 14.2487 3.59104 0.299271 1.35087 -1.55892 1 1
500 1 14.3044 16.0167 5.35479 -9.91386 -4.71026 -9.42305 1 1
501 1 14.2624 17.8294 3.56164 3.33465 4.03372 8.04106 1 1
502 1 16.0966 16.0796 3.65493 -8.13315 2.91003 -5.22047 1 1
503 1 15.181 15.1241 4.48069 -2.51361 -6.60509 -5.36033 1 1
504 1 16.9782 16.94 4.53196 3.17436 -7.38235 1.47845 1 1
505 1 16.9522 15.1436 6.30085 2.25762 -0.0193004 0.966914 1 1
506 1 17.8382 15.9945 5.40926 -1.38325 5.31465 1.20117 1 1
507 1 19.6784 14.1879 5.41037 8.27 -5.20448 -2.55737 1 1
508 1 19.6282 16.032 3.54232 2.35346 -5.4895 1.18059 1 1
509 1 18.783 15.099 4.49428 -3.23767 2.14045 -2.22359 1 1
510 1 20.5189 16.9161 4.50666 -7.20776 1.91759 -4.55852 1 1
511 1 19.595 17.83 5.38924 1.32227 -6.43033 0.226478 1 1
512 1 20.5038 15.1182 6.29262 -2.64663 2.45069 -6.72397 1 1
513 1 1.79785 19.594 3.62325 0.715181 -5.86487 -1.04773 1 1
514 1 0.907248 18.7023 4.51703 -3.5784 2.89272 -7.08035 1 1
515 1 0.934846 20.4828 6.25362 -2.12642 5.12951 -0.952668 1 1
516 1 2.66575 20.5118 4.48778 0.316202 -3.37548 2.45643 1 1
517 1 0.039796 17.7971 3.5672 4.36549 7.85552 -6.93867 1 1
518 1 21.3568 19.5961 5.42088 6.4732 3.44275 -4.30163 1 1
519 1 2.66718 18.7996 6.27918 -7.25576 1.21491 3.04686 1 1
520 1 5.35111 17.8149 5.39814 7.70431 5.82095 -2.83671 1 1
521 1 3.55676 17.8259 3.60935 2.72674 -0.312984 1.25107 1 1
522 1 3.59845 19.6541 5.41876 -4.01947 3.14389 -2.02524 1 1
523 1 5.36565 19.6369 3.62534 -3.39476 2.21816 -6.40604 1 1
524 1 4.46141 18.7395 4.55127 2.58459 4.60808 2.01152 1 1
525 1 4.53036 20.5358 6.28717 5.33399 -2.33354 -2.61689 1 1
526 1 6.27329 18.7496 6.25474 8.57736 -2.2077 0.911861 1 1
527 1 6.28622 20.5039 4.45168 -4.79886 3.47414 -9.81596 1 1
528 1 7.14168 17.8232 3.61185 9.11598 0.68696 5.87173 1 1
529 1 7.18494 19.5798 5.41313 -1.87714 -4.22119 -1.34551 1 1
530 1 8.96146 21.382 5.38332 2.15159 2.20938 -3.7336 1 1
531 1 8.93375 19.6554 3.61071 -5.61088 -1.41193 1.60524 1 1
532 1 8.07069 18.7285 4.5037 7.15637 -8.78841 11.5491 1 1
533 1 8.05582 20.5031 6.23833 -6.42359 4.77571 2.26993 1 1
534 1 9.84126 18.6692 6.24533 2.50328 2.4937 -2.39911 1 1
535 1 9.82828 20.537 4.51933 -3.23478 1.92046 2.124 1 1
536 1 10.7357 19.5882 5.39689 -1.47632 2.25127 -0.45114 1 1
537 1 10.6816 0.00585285 3.58829 0.947879 1.73802 -1.57639 1 1
538 1 12.4717 19.6111 3.61646 7.48628 2.24825 3.17625 1 1
539 1 11.6537 18.7073 4.50721 2.95885 7.202 2.02635 1 1
540 1 13.364 18.7831 6.28198 4.78055 -9.03811 0.822753 1 1
541 1 13.3871 20.5093 4.52568 -6.81565 2.11264 2.53604 1 1
542 1 16.0914 17.8669 5.41932 -0.62259 -4.06415 -0.958407 1 1
543 1 14.2756 0.0278779 3.64655 -4.87081 1.82578 -1.80384 1 1
544 1 14.2933 19.6242 5.38724 2.21508 8.74419 -2.35311 1 1
545 1 16.0226 19.6311 3.58569 -0.486885 -9.20423 5.01267 1 1
546 1 15.1816 18.722 4.5234 6.28782 -1.60465 -0.985513 1 1
547 1 16.9763 18.7623 6.32376 -6.75631 3.90765 -5.21554 1 1
548 1 16.9317 20.5195 4.49295 0.880743 2.68245 -3.18419 1 1
549 1 17.8382 19.6652 5.40569 -4.44972 1.61319 -10.326 1 1
550 1 17.8467 17.88 3.63446 -5.66351 -4.86015 -4.56157 1 1
551 1 19.5809 19.6296 3.61438 -0.356809 -5.87279 -0.876155 1 1
552 1 18.6773 18.7426 4.50928 -0.285048 8.82368 -3.58275 1 1
553 1 18.7317 20.524 6.28808 2.27867 -6.82187 -4.66218 1 1
554 1 20.5084 18.7438 6.28194 -0.230507 3.48544 -7.54041 1 1
555 1 20.4878 20.5087 4.50668 -3.28037 1.94647 -3.09881 1 1