ITEM: TIMESTEP
1900
ITEM: NUMBER OF ATOMS
2952
ITEM: BOX BOUNDS pp pp mm
0.0000000000000000e+00 2.1394294200000001e+01
0.0000000000000000e+00 2.1394294200000001e+01
-4.4571446250000002e-01 5.3485735500000004e+01
ITEM: ATOMS id type x y z vx vy vz v_is_diamond c_structure_type
1 1 0 0 0 0 0 0 1 3
2 1 1.78286 1.78286 0 0 0 0 1 3
3 1 0.891429 0.891429 0.891429 0 0 0 1 2
4 1 0.902678 2.65106 2.72887 6.64916 -8.33619 -8.00133 1 1
5 1 2.67946 0.881051 2.66679 0.914298 8.52523 -1.59279 1 1
6 1 2.67429 2.67429 0.891429 0 0 0 1 2
7 1 -0.00103058 1.81942 1.80373 0.869882 1.80107 -5.46789 1 1
8 1 1.76082 -0.0164569 1.83362 5.99469 -5.60038 0.119146 1 1
9 1 1.77711 3.59457 1.87299 2.04808 -2.32043 2.83284 1 1
10 1 3.55512 1.76112 1.78308 6.83018 -5.87127 0.201643 1 1
11 1 3.56572 0 0 0 0 0 1 3
12 1 5.34857 1.78286 0 0 0 0 1 3
13 1 4.45714 0.891429 0.891429 0 0 0 1 2
14 1 4.43536 2.68168 2.68995 -1.91388 7.75377 -2.23215 1 1
15 1 6.21405 0.906653 2.67261 -4.05437 3.23199 -3.13715 1 1
16 1 6.24 2.67429 0.891429 0 0 0 1 2
17 1 7.1322 1.76367 1.79462 -6.22613 3.1962 1.31419 1 1
18 1 7.13143 0 0 0 0 0 1 3
19 1 8.02286 0.891429 0.891429 0 0 0 1 2
20 1 8.00014 2.67936 2.71536 -1.94258 -7.95011 -4.18231 1 1
21 1 8.91429 1.78286 0 0 0 0 1 3
22 1 9.85086 0.8597 2.64644 0.281454 -4.01778 2.06264 1 1
23 1 9.80572 2.67429 0.891429 0 0 0 1 2
24 1 8.95044 -0.00899383 1.75804 2.85852 -11.5256 1.45892 1 1
25 1 10.7032 1.81799 1.81165 3.01657 -0.185201 0.556666 1 1
26 1 10.6971 0 0 0 0 0 1 3
27 1 12.48 1.78286 0 0 0 0 1 3
28 1 11.5886 0.891429 0.891429 0 0 0 1 2
29 1 11.6048 2.67094 2.71577 -6.46546 -1.42205 3.86146 1 1
30 1 13.3797 0.868704 2.70243 -7.89398 -8.74611 -0.316032 1 1
31 1 13.3714 2.67429 0.891429 0 0 0 1 2
32 1 14.2912 1.79329 1.82717 3.86176 -0.00716886 -2.93908 1 1
33 1 14.2629 0 0 0 0 0 1 3
34 1 16.0457 1.78286 0 0 0 0 1 3
35 1 15.1543 0.891429 0.891429 0 0 0 1 2
36 1 15.1494 2.6932 2.71308 5.93798 6.39916 -7.3291 1 1
37 1 16.9325 0.826269 2.71561 -0.901476 15.4358 -2.88573 1 1
38 1 16.9371 2.67429 0.891429 0 0 0 1 2
39 1 16.023 -0.0497448 1.76422 0.526661 -4.16294 0.519915 1 1
40 1 17.8241 1.75882 1.80728 -2.1337 -5.69999 1.88905 1 1
41 1 17.8286 0 0 0 0 0 1 3
42 1 19.6114 1.78286 0 0 0 0 1 3
43 1 18.72 0.891429 0.891429 0 0 0 1 2
44 1 18.7032 2.69433 2.67615 -10.4689 1.41421 5.19407 1 1
45 1 20.4936 0.931114 2.68543 -2.9063 -3.74683 -1.07696 1 1
46 1 20.5029 2.67429 0.891429 0 0 0 1 2
47 1 0 3.56572 0 0 0 0 1 3
48 1 1.78286 5.34857 0 0 0 0 1 3
49 1 0.891429 4.45714 0.891429 0 0 0 1 2
50 1 0.917342 6.20756 2.69837 -5.14051 -4.26902 2.69769 1 1
51 1 2.65576 4.46726 2.74511 -3.15456 -4.59033 1.24801 1 1
52 1 2.67429 6.24 0.891429 0 0 0 1 2
53 1 3.55261 5.33971 1.79673 3.59561 0.101721 -15.5095 1 1
54 1 5.36571 3.53414 1.79093 2.86192 2.6302 -3.11559 1 1
55 1 3.56572 3.56572 0 0 0 0 1 3
56 1 5.34857 5.34857 0 0 0 0 1 3
57 1 4.45714 4.45714 0.891429 0 0 0 1 2
58 1 4.49582 6.22226 2.66667 -1.60185 2.18144 1.31178 1 1
59 1 6.25626 4.45453 2.63408 -1.2963 5.75187 0.21987 1 1
60 1 6.24 6.24 0.891429 0 0 0 1 2
61 1 5.34966 7.14157 1.80142 -2.01257 0.143879 -0.853906 1 1
62 1 7.13758 5.32091 1.77681 0.818849 0.0121337 -0.773928 1 1
63 1 7.13143 3.56572 0 0 0 0 1 3
64 1 8.90137 3.56575 1.80337 -7.89974 -4.51246 -1.51332 1 1
65 1 8.02286 4.45714 0.891429 0 0 0 1 2
66 1 8.03005 6.23066 2.67224 1.86797 -2.4486 0.821819 1 1
67 1 8.91429 5.34857 0 0 0 0 1 3
68 1 9.8385 4.43148 2.69556 5.05656 1.0636 1.52893 1 1
69 1 9.80572 6.24 0.891429 0 0 0 1 2
70 1 10.6791 5.34251 1.79682 -1.29642 1.0444 3.87029 1 1
71 1 12.4659 3.56548 1.83685 -5.16637 -1.96727 5.03808 1 1
72 1 10.6971 3.56572 0 0 0 0 1 3
73 1 12.48 5.34857 0 0 0 0 1 3
74 1 11.5886 4.45714 0.891429 0 0 0 1 2
75 1 11.6058 6.24037 2.70961 -3.0485 -10.7438 -3.57773 1 1
76 1 13.4307 4.4781 2.70031 -2.67394 8.22119 5.42644 1 1
77 1 13.3714 6.24 0.891429 0 0 0 1 2
78 1 14.2767 5.36181 1.80959 -1.34142 -3.20446 -4.07102 1 1
79 1 16.014 3.54899 1.81088 -5.58503 5.48048 1.33666 1 1
80 1 14.2629 3.56572 0 0 0 0 1 3
81 1 16.0457 5.34857 0 0 0 0 1 3
82 1 15.1543 4.45714 0.891429 0 0 0 1 2
83 1 15.1734 6.22259 2.67062 1.22974 -1.80548 3.01175 1 1
84 1 16.9541 4.43208 2.68087 -3.10761 -0.777295 6.77755 1 1
85 1 16.9371 6.24 0.891429 0 0 0 1 2
86 1 17.844 5.37409 1.78761 5.543 -0.322704 2.16206 1 1
87 1 19.6129 3.55131 1.77388 -5.62267 5.21251 1.00091 1 1
88 1 21.4008 5.32325 1.81853 0.874927 5.07539 -3.01035 1 1
89 1 17.8286 3.56572 0 0 0 0 1 3
90 1 19.6114 5.34857 0 0 0 0 1 3
91 1 18.72 4.45714 0.891429 0 0 0 1 2
92 1 18.7237 6.22693 2.72722 3.56138 -5.99393 -0.8585 1 1
93 1 20.4376 4.44864 2.66252 -2.81674 -0.803351 1.62811 1 1
94 1 20.5029 6.24 0.891429 0 0 0 1 2
95 1 19.5889 7.15863 1.79324 7.8448 -0.325242 -0.32842 1 1
96 1 1.81187 7.13692 1.83122 -2.98379 3.13854 5.17553 1 1
97 1 0 7.13143 0 0 0 0 1 3
98 1 0.891429 8.02286 0.891429 0 0 0 1 2
99 1 2.68333 8.02593 2.70423 5.63178 -8.30367 -4.38451 1 1
100 1 1.78286 8.91429 0 0 0 0 1 3
101 1 0.914321 9.78984 2.69968 1.59464 -5.07809 1.67988 1 1
102 1 2.67429 9.80572 0.891429 0 0 0 1 2
103 1 1.82239 10.7007 1.79895 2.24661 3.69726 2.64407 1 1
104 1 3.52495 8.91394 1.82751 -1.59068 -10.4114 1.07849 1 1
105 1 3.56572 7.13143 0 0 0 0 1 3
106 1 4.45714 8.02286 0.891429 0 0 0 1 2
107 1 6.24814 8.05311 2.68943 -3.47493 -0.167381 6.1783 1 1
108 1 5.34857 8.91429 0 0 0 0 1 3
109 1 4.49463 9.85333 2.68258 -2.09695 -2.83114 -3.23882 1 1
110 1 6.24 9.80572 0.891429 0 0 0 1 2
111 1 7.12367 8.94223 1.77071 0.644428 -7.89163 -2.74354 1 1
112 1 8.88049 7.13586 1.78689 -8.88505 9.03305 -4.93499 1 1
113 1 7.13143 7.13143 0 0 0 0 1 3
114 1 8.02286 8.02286 0.891429 0 0 0 1 2
115 1 9.81252 8.01687 2.69484 8.89091 -1.29264 7.51164 1 1
116 1 8.05719 9.81458 2.68777 -0.358729 0.61452 5.79008 1 1
117 1 8.91429 8.91429 0 0 0 0 1 3
118 1 9.80572 9.80572 0.891429 0 0 0 1 2
119 1 10.71 8.8922 1.79231 -2.32744 -5.18519 -4.15288 1 1
120 1 12.4884 7.16202 1.75232 -0.966407 -5.24573 -1.36674 1 1
121 1 10.6971 7.13143 0 0 0 0 1 3
122 1 11.5886 8.02286 0.891429 0 0 0 1 2
123 1 13.3678 8.04749 2.67261 5.89793 3.66976 4.19172 1 1
124 1 12.48 8.91429 0 0 0 0 1 3
125 1 11.5762 9.7663 2.69885 -1.8969 1.30767 0.354469 1 1
126 1 13.3714 9.80572 0.891429 0 0 0 1 2
127 1 12.4776 10.6963 1.77678 1.51289 0.120521 -7.14599 1 1
128 1 16.0691 7.13084 1.77262 -0.125825 -2.58011 2.69346 1 1
129 1 14.2479 8.93204 1.77665 -2.81214 -5.12656 -1.19699 1 1
130 1 14.2629 7.13143 0 0 0 0 1 3
131 1 15.1543 8.02286 0.891429 0 0 0 1 2
132 1 16.9388 8.04169 2.67303 -0.605776 1.69637 1.15204 1 1
133 1 16.0457 8.91429 0 0 0 0 1 3
134 1 15.1443 9.77197 2.69928 -2.07316 -3.13616 1.78332 1 1
135 1 16.9371 9.80572 0.891429 0 0 0 1 2
136 1 16.0389 10.6826 1.78555 -4.61252 -6.45425 3.87404 1 1
137 1 17.8516 8.91486 1.78069 -10.2441 -4.03174 5.19359 1 1
138 1 -0.00562404 8.93495 1.80906 0.633409 5.2118 1.2055 1 1
139 1 17.8286 7.13143 0 0 0 0 1 3
140 1 18.72 8.02286 0.891429 0 0 0 1 2
141 1 20.4852 8.01583 2.69933 -1.4271 5.23438 -1.81109 1 1
142 1 19.6114 8.91429 0 0 0 0 1 3
143 1 18.7219 9.78123 2.68565 -4.62364 -0.779557 3.69219 1 1
144 1 20.5029 9.80572 0.891429 0 0 0 1 2
145 1 0 10.6971 0 0 0 0 1 3
146 1 1.78286 12.48 0 0 0 0 1 3
147 1 0.891429 11.5886 0.891429 0 0 0 1 2
148 1 2.7139 11.6212 2.67495 -3.70978 6.37605 -3.91607 1 1
149 1 0.876729 13.3654 2.67368 -1.56569 2.82372 -2.40267 1 1
150 1 2.67429 13.3714 0.891429 0 0 0 1 2
151 1 -0.0187295 12.4514 1.85059 4.99534 0.256817 -8.99437 1 1
152 1 5.36324 10.6806 1.75112 -0.902607 7.57337 -1.94741 1 1
153 1 3.55695 12.4533 1.79884 -0.807321 -0.0462007 7.03593 1 1
154 1 3.56572 10.6971 0 0 0 0 1 3
155 1 5.34857 12.48 0 0 0 0 1 3
156 1 4.45714 11.5886 0.891429 0 0 0 1 2
157 1 6.26744 11.5861 2.66224 -0.249553 0.918001 1.53955 1 1
158 1 4.43784 13.3581 2.64528 -0.583331 -0.0729375 -7.97794 1 1
159 1 6.24 13.3714 0.891429 0 0 0 1 2
160 1 5.36563 14.2119 1.7707 -6.68294 0.485243 -2.04118 1 1
161 1 8.91459 10.694 1.81636 -7.64458 0.417414 -11.513 1 1
162 1 7.17897 12.4579 1.78488 -0.616473 2.65983 -5.90037 1 1
163 1 7.13143 10.6971 0 0 0 0 1 3
164 1 8.02286 11.5886 0.891429 0 0 0 1 2
165 1 8.91429 12.48 0 0 0 0 1 3
166 1 9.76991 11.5994 2.69756 11.1246 1.09557 -5.87435 1 1
167 1 8.02923 13.3818 2.70592 -0.446017 -0.293858 1.02949 1 1
168 1 9.80572 13.3714 0.891429 0 0 0 1 2
169 1 10.7253 12.474 1.81505 1.26971 0.298393 -2.44052 1 1
170 1 10.6971 10.6971 0 0 0 0 1 3
171 1 12.48 12.48 0 0 0 0 1 3
172 1 11.5886 11.5886 0.891429 0 0 0 1 2
173 1 13.3714 11.5801 2.73322 2.32935 4.90596 3.06401 1 1
174 1 11.5707 13.4007 2.69404 8.41451 -7.32344 -6.64153 1 1
175 1 13.3714 13.3714 0.891429 0 0 0 1 2
176 1 12.444 14.275 1.80335 -0.0779778 -1.79868 2.35299 1 1
177 1 14.2764 12.4803 1.81208 3.27207 2.81877 2.34511 1 1
178 1 14.2629 10.6971 0 0 0 0 1 3
179 1 16.0457 12.48 0 0 0 0 1 3
180 1 15.1543 11.5886 0.891429 0 0 0 1 2
181 1 16.9322 11.5812 2.68351 -2.3447 -7.06809 -1.6056 1 1
182 1 15.1905 13.3388 2.70553 7.34206 -2.5317 14.8973 1 1
183 1 16.9371 13.3714 0.891429 0 0 0 1 2
184 1 17.8406 12.504 1.802 -4.70256 0.880693 -7.51154 1 1
185 1 19.6482 10.6672 1.76607 0.452271 5.29161 -2.74229 1 1
186 1 17.8286 10.6971 0 0 0 0 1 3
187 1 19.6114 12.48 0 0 0 0 1 3
188 1 18.72 11.5886 0.891429 0 0 0 1 2
189 1 20.4674 11.5882 2.68562 -5.1334 -3.57152 4.28371 1 1
190 1 18.6663 13.389 2.71632 5.60982 5.98144 3.13119 1 1
191 1 20.5029 13.3714 0.891429 0 0 0 1 2
192 1 19.5773 14.263 1.78938 0.522516 -1.3774 -7.24228 1 1
193 1 1.7682 14.2562 1.7958 -1.92271 -0.780337 -5.36372 1 1
194 1 0 14.2629 0 0 0 0 1 3
195 1 1.78286 16.0457 0 0 0 0 1 3
196 1 0.891429 15.1543 0.891429 0 0 0 1 2
197 1 0.843704 16.9139 2.71273 -1.95594 -2.0695 -1.82089 1 1
198 1 2.65289 15.1392 2.69052 -6.04364 -4.73456 -0.184009 1 1
199 1 2.67429 16.9371 0.891429 0 0 0 1 2
200 1 -0.0324479 16.0543 1.74581 -3.49206 1.05971 -11.3804 1 1
201 1 3.59115 16.0683 1.83483 -2.20746 5.02753 2.70391 1 1
202 1 3.56572 14.2629 0 0 0 0 1 3
203 1 5.34857 16.0457 0 0 0 0 1 3
204 1 4.45714 15.1543 0.891429 0 0 0 1 2
205 1 4.48804 16.9471 2.68675 -2.11826 2.10637 8.7813 1 1
206 1 6.24957 15.1412 2.7031 -4.88362 3.59914 2.12563 1 1
207 1 6.24 16.9371 0.891429 0 0 0 1 2
208 1 7.16148 16.0292 1.81525 -0.348421 0.709699 1.63442 1 1
209 1 5.35867 17.8422 1.78726 5.06905 4.08004 3.2826 1 1
210 1 8.91048 14.2534 1.80327 -4.20136 -7.75024 1.04908 1 1
211 1 7.13143 14.2629 0 0 0 0 1 3
212 1 8.02286 15.1543 0.891429 0 0 0 1 2
213 1 7.98524 16.8722 2.71156 -3.72606 3.30619 7.98684 1 1
214 1 8.91429 16.0457 0 0 0 0 1 3
215 1 9.7998 15.1594 2.68538 -5.07295 0.287002 5.87717 1 1
216 1 9.80572 16.9371 0.891429 0 0 0 1 2
217 1 8.92953 17.7851 1.7942 6.64343 12.4448 -1.97566 1 1
218 1 10.6806 16.0923 1.77647 1.05577 3.76237 5.44119 1 1
219 1 10.6971 14.2629 0 0 0 0 1 3
220 1 12.48 16.0457 0 0 0 0 1 3
221 1 11.5886 15.1543 0.891429 0 0 0 1 2
222 1 11.6063 16.9199 2.70924 3.74208 2.38104 -1.00919 1 1
223 1 13.3321 15.1312 2.7019 3.85386 -9.36094 -0.952682 1 1
224 1 13.3714 16.9371 0.891429 0 0 0 1 2
225 1 12.4467 17.8538 1.83377 -5.07647 1.26648 3.84731 1 1
226 1 16.0674 14.2251 1.8275 5.29885 9.15279 6.17077 1 1
227 1 14.2514 16.022 1.80626 4.63938 -1.02745 3.96393 1 1
228 1 14.2629 14.2629 0 0 0 0 1 3
229 1 16.0457 16.0457 0 0 0 0 1 3
230 1 15.1543 15.1543 0.891429 0 0 0 1 2
231 1 15.1577 16.9296 2.67829 -1.36264 4.7626 0.514173 1 1
232 1 16.9348 15.1699 2.68851 3.36584 -4.39268 0.239275 1 1
233 1 16.9371 16.9371 0.891429 0 0 0 1 2
234 1 17.8409 16.0521 1.80699 -1.62245 -0.720207 2.95982 1 1
235 1 17.8286 14.2629 0 0 0 0 1 3
236 1 19.6114 16.0457 0 0 0 0 1 3
237 1 18.72 15.1543 0.891429 0 0 0 1 2
238 1 18.7262 16.9204 2.72342 -7.72616 -5.67686 0.870996 1 1
239 1 20.5011 15.1593 2.65665 -2.17374 7.87924 -4.86622 1 1
240 1 20.5029 16.9371 0.891429 0 0 0 1 2
241 1 19.5896 17.8523 1.82122 3.36971 5.05205 0.16518 1 1
242 1 1.78322 17.8082 1.79963 1.96345 -6.99725 -1.46055 1 1
243 1 0 17.8286 0 0 0 0 1 3
244 1 1.78286 19.6114 0 0 0 0 1 3
245 1 0.891429 18.72 0.891429 0 0 0 1 2
246 1 0.901753 20.4945 2.71349 3.06703 3.08696 -5.3865 1 1
247 1 2.63076 18.724 2.69475 -1.02206 -6.57472 -3.36874 1 1
248 1 2.67429 20.5029 0.891429 0 0 0 1 2
249 1 3.5849 19.6436 1.81084 -4.68686 0.280697 4.21676 1 1
250 1 21.3897 19.5891 1.79138 -2.4144 7.25652 -4.46525 1 1
251 1 5.36786 0.0177145 1.78853 -1.99016 -4.64937 0.865352 1 1
252 1 3.56572 17.8286 0 0 0 0 1 3
253 1 5.34857 19.6114 0 0 0 0 1 3
254 1 4.45714 18.72 0.891429 0 0 0 1 2
255 1 4.43361 20.5449 2.71574 2.43006 -8.11342 0.230675 1 1
256 1 6.25373 18.7476 2.66314 4.20164 3.86537 -0.476464 1 1
257 1 6.24 20.5029 0.891429 0 0 0 1 2
258 1 7.17868 19.6113 1.78743 7.43379 -4.37835 -3.0018 1 1
259 1 7.13143 17.8286 0 0 0 0 1 3
260 1 8.02286 18.72 0.891429 0 0 0 1 2
261 1 8.02968 20.4906 2.64453 -0.153909 -4.64168 3.03772 1 1
262 1 8.91429 19.6114 0 0 0 0 1 3
263 1 9.82326 18.6786 2.71445 0.0757166 5.67202 4.04316 1 1
264 1 9.80572 20.5029 0.891429 0 0 0 1 2
265 1 10.7192 19.5833 1.76698 -2.57765 -1.46467 3.54603 1 1
266 1 12.4686 21.4105 1.79362 -2.14214 4.91461 -2.40854 1 1
267 1 10.6971 17.8286 0 0 0 0 1 3
268 1 12.48 19.6114 0 0 0 0 1 3
269 1 11.5886 18.72 0.891429 0 0 0 1 2
270 1 11.5791 20.517 2.69864 9.25085 0.721587 -9.21284 1 1
271 1 13.3706 18.726 2.74327 5.61234 -2.42585 6.88861 1 1
272 1 13.3714 20.5029 0.891429 0 0 0 1 2
273 1 14.2668 19.6149 1.8529 -2.9029 12.159 2.61946 1 1
274 1 16.076 17.8056 1.77836 -5.07631 1.96163 0.753115 1 1
275 1 14.2629 17.8286 0 0 0 0 1 3
276 1 16.0457 19.6114 0 0 0 0 1 3
277 1 15.1543 18.72 0.891429 0 0 0 1 2
278 1 15.1806 20.4739 2.69309 -0.982756 5.86453 -2.16335 1 1
279 1 16.92 18.7359 2.69153 1.56007 6.22549 -3.57164 1 1
280 1 16.9371 20.5029 0.891429 0 0 0 1 2
281 1 19.6354 0.00334616 1.80336 4.79505 -3.52676 1.3597 1 1
282 1 17.8164 19.6046 1.80082 3.79585 -2.07277 -2.89178 1 1
283 1 17.8286 17.8286 0 0 0 0 1 3
284 1 19.6114 19.6114 0 0 0 0 1 3
285 1 18.72 18.72 0.891429 0 0 0 1 2
286 1 18.7235 20.5343 2.70522 3.58568 -1.2047 -0.177834 1 1
287 1 20.4706 18.7191 2.71088 -5.35512 7.25316 4.82128 1 1
288 1 20.5029 20.5029 0.891429 0 0 0 1 2
289 1 1.79946 1.80122 3.58492 -2.88932 3.50703 -2.78735 1 1
290 1 0.917775 0.915487 4.46346 3.16297 -0.0927773 10.9282 1 1
291 1 2.66014 2.67123 4.45298 -0.211963 -5.18594 -1.29301 1 1
292 1 1.78718 -0.0476804 5.3352 7.36932 0.07931 -7.06909 1 1
293 1 1.77912 3.54778 5.32035 2.68908 -3.19589 -0.294062 1 1
294 1 21.4687 1.79927 5.4148 -2.79705 -2.91547 4.24468 1 1
295 1 -0.0207865 21.3896 3.59899 -4.68421 2.83827 -7.21009 1 1
296 1 3.57567 1.80553 5.37322 -5.86637 2.34867 -3.96305 1 1
297 1 5.32415 1.79664 3.58217 -5.10452 9.79828 8.31622 1 1
298 1 4.44572 0.928447 4.47846 1.02246 1.77854 1.26561 1 1
299 1 6.28361 0.920061 6.22451 -3.76468 0.193768 8.12173 1 1
300 1 6.22771 2.68279 4.52605 -6.58963 -5.31427 -4.01132 1 1
301 1 3.54045 21.4185 3.56555 1.68812 -0.966964 -2.74408 1 1
302 1 7.11369 -0.0377037 3.54704 1.0815 1.0247 -0.0494355 1 1
303 1 5.33694 0.0179238 5.35145 6.92297 -1.52917 -4.76036 1 1
304 1 7.13906 3.60729 3.595 1.70853 -3.29712 -0.086467 1 1
305 1 7.13761 1.78371 5.37547 4.64987 2.57582 -2.59024 1 1
306 1 8.89939 1.77049 3.50815 2.6604 0.788943 -1.11901 1 1
307 1 8.01181 0.870428 4.43003 -1.22734 -2.98518 1.80804 1 1
308 1 8.06748 2.64435 6.27557 -8.68443 -1.36996 5.50923 1 1
309 1 9.82897 0.922046 6.29543 -3.83536 4.09708 -1.89088 1 1
310 1 9.85129 2.64802 4.47682 -7.42667 2.44223 -0.930668 1 1
311 1 10.7261 1.7783 5.39424 -5.3541 -5.37613 -9.11858 1 1
312 1 12.4827 1.77964 3.61752 4.07973 1.74155 5.39185 1 1
313 1 11.5973 0.862757 4.4797 -6.57706 -4.19421 -1.31297 1 1
314 1 11.6456 2.68568 6.29223 8.0552 -3.20647 0.861278 1 1
315 1 13.3808 2.69746 4.48331 5.27572 -3.41229 3.44999 1 1
316 1 13.3898 0.913354 6.30783 1.22633 -2.31407 -0.31826 1 1
317 1 12.4739 3.53115 5.4128 -7.98395 1.08681 1.76958 1 1
318 1 14.2526 1.79627 5.36983 -4.43968 -4.97095 -1.8029 1 1
319 1 12.5213 -0.00207232 5.375 -1.72939 0.924281 4.68613 1 1
320 1 14.2657 3.58731 3.62968 1.10709 0.632199 -5.73485 1 1
321 1 16.033 1.78569 3.62578 0.0191092 0.305287 5.71231 1 1
322 1 15.1535 0.919543 4.49209 -4.35133 -5.99182 1.54737 1 1
323 1 15.1285 2.66499 6.32789 2.84767 3.87534 9.08568 1 1
324 1 16.9094 2.66295 4.47098 2.94704 4.29486 4.2526 1 1
325 1 17.8083 1.74959 5.35902 2.95453 4.86665 -3.97195 1 1
326 1 15.9852 -0.00661091 5.38376 -0.422618 -6.72959 3.65948 1 1
327 1 19.6008 1.7956 3.58826 -1.4387 -0.13887 -5.18963 1 1
328 1 18.7333 0.886689 4.51115 6.3196 -2.25099 4.47217 1 1
329 1 20.5038 2.68583 4.50066 4.32166 3.24005 -3.21373 1 1
330 1 17.7991 21.4217 3.63905 6.29769 1.51583 -5.16526 1 1
331 1 19.6593 0.00126355 5.36756 -3.73795 -4.38157 -3.55957 1 1
332 1 21.364 3.53689 3.57455 -3.44016 -7.8428 -4.1623 1 1
333 1 1.76001 5.30842 3.62185 2.58536 -1.76747 -0.0335842 1 1
334 1 0.862515 4.45124 4.50042 -4.30118 6.34538 2.05297 1 1
335 1 2.63909 4.44519 6.26766 -0.510228 6.21208 -5.77976 1 1
336 1 2.64887 6.24089 4.44251 -5.16749 -5.65695 -6.35284 1 1
337 1 3.53915 3.5529 3.56353 0.975353 3.9541 -2.89579 1 1
338 1 21.3787 5.30254 5.36526 2.76053 -4.87918 -9.22612 1 1
339 1 3.55576 5.39704 5.37708 -2.60863 4.10031 2.74574 1 1
340 1 5.29345 3.57114 5.40461 -1.03533 0.172614 -0.843526 1 1
341 1 5.31572 5.32392 3.60168 -2.451 -0.411019 -3.69852 1 1
342 1 4.4293 4.44377 4.47799 10.7083 0.139933 -8.77355 1 1
343 1 4.41991 6.26734 6.29615 8.61816 0.606194 1.23743 1 1
344 1 6.25128 6.23818 4.50838 -4.0823 4.82257 -2.34658 1 1
345 1 7.1069 5.37513 5.36831 0.633541 3.33315 -2.0765 1 1
346 1 5.37786 7.14492 5.41316 5.99499 -4.44465 4.78092 1 1
347 1 6.25419 4.45528 6.24796 -0.364021 2.57082 7.78281 1 1
348 1 8.95107 3.52959 5.36754 -2.01415 -0.759791 2.85492 1 1
349 1 10.7117 3.54137 3.57028 2.97239 2.84818 8.00811 1 1
350 1 8.88112 5.30982 3.56984 5.2214 2.02367 4.3571 1 1
351 1 8.02689 4.43857 4.47316 -3.39961 -0.0783092 4.11474 1 1
352 1 7.98382 6.22816 6.26785 -1.29575 6.74039 2.62028 1 1
353 1 9.83251 4.47542 6.27262 4.80272 2.64417 -5.07939 1 1
354 1 9.76862 6.20304 4.45854 -5.81985 1.75245 1.13635 1 1
355 1 10.6778 5.33553 5.35551 -0.151027 -5.4517 0.571934 1 1
356 1 12.4701 5.36051 3.57393 9.08855 -1.19783 1.70449 1 1
357 1 11.598 4.41672 4.49398 -3.68616 5.43449 12.6532 1 1
358 1 13.4131 6.22355 4.47938 5.02125 -9.62914 -0.235277 1 1
359 1 14.2479 5.34061 5.39199 7.13204 -0.423712 3.56667 1 1
360 1 16.0385 3.55008 5.40255 1.32796 -13.322 7.78638 1 1
361 1 17.7994 3.59442 3.56982 4.8677 7.69397 -7.25376 1 1
362 1 16.0207 5.34792 3.58676 -5.56922 -4.21805 6.13648 1 1
363 1 15.1461 4.47218 4.529 -3.04208 -0.277864 -0.744925 1 1
364 1 16.9199 6.23963 4.4832 -1.39571 1.64714 8.41189 1 1
365 1 16.9027 4.47245 6.29326 0.670646 -6.77029 7.74323 1 1
366 1 16.0042 7.12068 5.39143 -0.430641 -0.90696 -0.649633 1 1
367 1 15.1443 6.19708 6.30202 -3.88273 0.324919 -4.1283 1 1
368 1 19.606 3.53936 5.41335 -4.7052 -8.83015 1.17652 1 1
369 1 17.7984 5.3326 5.40951 9.82393 -0.946542 -0.0817808 1 1
370 1 19.6114 5.34904 3.61301 -3.73392 3.07193 2.17477 1 1
371 1 18.7319 4.46999 4.52298 1.27172 -0.0550723 4.7956 1 1
372 1 20.5398 4.42225 6.29338 4.29411 -5.86557 0.209712 1 1
373 1 20.5006 6.23137 4.49025 -4.34716 0.107473 2.42159 1 1
374 1 19.597 7.12317 5.40032 -3.40733 -5.28947 2.00612 1 1
375 1 -0.010259 7.16643 3.59677 1.18935 3.23816 0.039724 1 1
376 1 1.75673 7.12477 5.35295 -2.70466 -1.8794 6.70257 1 1
377 1 1.79683 8.92258 3.5752 0.0303419 -6.92984 -6.90041 1 1
378 1 0.874815 8.0128 4.53065 -0.968114 -2.15416 -5.07393 1 1
379 1 2.66699 8.01496 6.28366 -0.149316 6.36721 -0.599041 1 1
380 1 0.915502 9.78602 6.27484 3.92152 -2.12363 -8.31239 1 1
381 1 2.63273 9.78101 4.46427 3.52516 5.20829 2.6673 1 1
382 1 21.4019 8.93904 5.42268 5.12619 -4.87627 -1.87529 1 1
383 1 1.80512 10.7302 5.35492 -3.10274 -4.68129 -3.73467 1 1
384 1 3.59006 7.13308 3.55699 1.71493 -1.34003 6.97183 1 1
385 1 7.17075 7.14014 3.55921 -1.07957 0.302993 0.691325 1 1
386 1 3.58807 10.7134 3.55684 -1.84676 0.0954943 4.32353 1 1
387 1 3.53159 8.93686 5.33748 -2.85316 1.68771 9.36403 1 1
388 1 5.34763 8.91699 3.56867 -6.95386 -8.86377 0.390572 1 1
389 1 4.45462 8.02612 4.46519 -6.27754 7.19585 -9.31273 1 1
390 1 4.46853 9.82077 6.2485 3.72339 3.33295 -2.45699 1 1
391 1 6.25045 9.82152 4.47144 1.23473 -0.86177 -7.23333 1 1
392 1 8.90856 7.10449 5.39728 1.44406 0.953431 1.86578 1 1
393 1 7.09626 8.91351 5.39527 2.71326 3.75288 -9.39839 1 1
394 1 8.91857 8.93142 3.53808 -2.57832 2.66987 1.19207 1 1
395 1 8.07188 8.04093 4.47764 -0.122229 -5.65724 -6.02599 1 1
396 1 9.80865 9.80208 4.4844 2.63225 -1.97489 1.27216 1 1
397 1 10.6834 8.91686 5.39406 3.52854 5.51506 -2.87834 1 1
398 1 10.7023 10.6648 3.59126 5.86914 -5.77637 2.0777 1 1
399 1 9.81548 8.00211 6.29252 -3.22256 -2.60074 -0.817285 1 1
400 1 12.4623 7.07657 5.38005 7.69761 -4.10291 -2.79596 1 1
401 1 10.7037 7.09517 3.5692 6.27003 1.06193 -1.02373 1 1
402 1 12.4414 8.89455 3.56696 0.0544532 -5.677 -4.95839 1 1
403 1 11.5761 8.02915 4.49698 -5.5196 -2.45076 -2.33075 1 1
404 1 13.3225 9.81936 4.48851 -5.20828 -2.80233 -5.78917 1 1
405 1 14.2813 7.14656 3.56605 3.93235 2.07402 7.83948 1 1
406 1 14.1987 8.86644 5.3994 -3.9076 -1.7886 1.52152 1 1
407 1 17.8003 7.12589 3.56401 -6.41877 2.59982 2.44146 1 1
408 1 16.0583 8.89593 3.56812 4.05071 6.48169 1.35181 1 1
409 1 15.1811 7.98857 4.47742 -1.40153 -5.0741 -0.6007 1 1
410 1 16.9718 9.7915 4.51209 -1.03211 -4.35843 -5.59201 1 1
411 1 16.0141 10.6787 5.34576 -4.6107 -2.77115 -6.93533 1 1
412 1 16.9385 7.97768 6.29906 3.08092 2.56957 -2.13746 1 1
413 1 17.8426 8.90714 5.3579 -10.4408 0.836023 2.53838 1 1
414 1 19.6144 8.92204 3.5695 1.3899 -0.148512 9.88597 1 1
415 1 18.7519 7.97299 4.48042 -0.270259 1.72167 -0.0754015 1 1
416 1 18.7252 9.77501 6.25922 -7.94759 1.74939 3.97224 1 1
417 1 20.5191 9.79921 4.48113 -3.54474 0.1747 1.28825 1 1
418 1 20.4963 8.01911 6.3091 1.02847 -3.48531 -0.335204 1 1
419 1 19.6688 10.6799 5.38614 -4.43801 -3.18095 2.13931 1 1
420 1 0.0355135 10.6817 3.54089 -1.92574 4.13123 6.80366 1 1
421 1 1.80394 12.4958 3.59981 1.64808 -3.01635 -4.09149 1 1
422 1 0.904016 11.5838 4.42507 1.55573 4.18372 -3.89613 1 1
423 1 2.70687 11.6152 6.20753 5.00396 -7.68446 0.484265 1 1
424 1 0.893419 13.3362 6.27826 0.202407 3.91024 0.205202 1 1
425 1 2.68195 13.3637 4.45801 -2.96664 -0.701588 0.416314 1 1
426 1 0.0158532 12.4864 5.33667 -0.567193 -1.9676 4.86504 1 1
427 1 5.34993 10.7024 5.35836 1.06707 -0.992336 2.02847 1 1
428 1 3.54956 14.2834 3.57521 -5.00685 -3.67519 5.18035 1 1
429 1 3.59009 12.5037 5.33814 1.26115 -0.833671 5.20013 1 1
430 1 5.39305 12.4905 3.56497 -3.55095 -1.70601 0.751613 1 1
431 1 4.50013 11.5948 4.45439 1.31412 1.93164 -1.11466 1 1
432 1 6.24122 13.3961 4.49381 -5.3676 5.75901 2.80198 1 1
433 1 7.1162 14.2803 3.61172 2.40415 -5.66615 5.42932 1 1
434 1 6.25173 11.5948 6.2842 2.4113 -1.52179 2.24829 1 1
435 1 7.12965 10.7099 3.61907 0.632183 -7.49186 3.61731 1 1
436 1 7.14568 12.5313 5.41572 -8.4676 -5.01569 3.41552 1 1
437 1 8.96869 10.7108 5.41036 -2.90634 -10.0436 6.35565 1 1
438 1 8.89665 12.4466 3.59052 -1.48708 -3.92525 0.627792 1 1
439 1 8.01412 11.5534 4.51209 6.77316 0.246157 -0.212548 1 1
440 1 9.78167 11.5964 6.32316 2.84106 -9.54883 -4.86584 1 1
441 1 8.06994 13.3915 6.31356 -6.41859 4.21702 -5.72298 1 1
442 1 9.81088 13.3974 4.46177 3.3794 2.93178 5.29424 1 1
443 1 10.6846 14.2857 3.6113 7.05872 -1.52221 -7.03558 1 1
444 1 12.4517 10.7192 5.36971 2.51116 7.98214 -3.27125 1 1
445 1 10.6572 12.5028 5.40228 -8.04215 0.29411 -15.362 1 1
446 1 12.4774 12.5101 3.62393 -11.5682 7.40617 1.26751 1 1
447 1 11.5144 11.6137 4.47703 -2.58822 1.01377 6.30899 1 1
448 1 13.3554 11.5905 6.27757 -7.03267 -0.939479 4.40864 1 1
449 1 11.5796 13.3675 6.27273 -7.27316 6.88446 5.92907 1 1
450 1 13.3612 13.3869 4.51876 7.32834 3.95094 -0.595379 1 1
451 1 14.2514 10.6469 3.59536 -5.65044 -0.845645 -1.64808 1 1
452 1 14.2827 12.4701 5.33769 -4.17017 -3.07807 -1.18661 1 1
453 1 16.0289 12.4673 3.60826 2.78245 -2.12118 -2.67347 1 1
454 1 15.1417 11.5729 4.47696 0.250994 -0.247053 -6.3419 1 1
455 1 16.934 11.5985 6.32956 -4.53233 -10.0084 4.84975 1 1
456 1 16.9677 13.3715 4.53765 5.19546 4.35665 -0.517841 1 1
457 1 17.8624 12.4553 5.38572 4.72912 0.335996 6.27915 1 1
458 1 15.179 13.3674 6.25696 -6.24099 1.46915 2.37591 1 1
459 1 17.8087 10.6655 3.59815 2.20692 3.68989 -6.58343 1 1
460 1 19.6311 12.4817 3.55399 -4.99479 -2.01572 1.18306 1 1
461 1 18.7353 11.5797 4.46261 -2.0022 -5.47015 0.938396 1 1
462 1 18.715 13.3336 6.30088 2.39116 -2.95117 -4.98612 1 1
463 1 20.5361 13.3651 4.45734 -0.789066 -15.7877 -13.3193 1 1
464 1 20.5377 11.5422 6.26477 2.06727 -3.23463 -2.94392 1 1
465 1 1.81626 14.2253 5.39148 3.20228 -4.81196 -0.0291463 1 1
466 1 1.76467 16.0284 3.54812 0.00771012 1.64818 4.88645 1 1
467 1 0.832794 15.1298 4.49386 5.27663 -11.1441 9.23521 1 1
468 1 2.70274 15.1001 6.28566 0.112925 -0.752458 -0.444435 1 1
469 1 2.7118 16.906 4.43125 0.487878 -0.962961 7.69213 1 1
470 1 -0.00473824 16.0242 5.34823 -1.24185 4.27035 6.62886 1 1
471 1 21.4278 14.2314 3.53417 -4.04163 1.54134 -3.37368 1 1
472 1 1.81707 17.7979 5.3564 -5.44378 -5.9209 -5.46857 1 1
473 1 5.37021 14.2704 5.3572 -4.81317 4.48042 2.9179 1 1
474 1 3.58561 16.0067 5.35255 1.01981 4.54949 -2.84641 1 1
475 1 5.33282 16.0209 3.56169 3.18453 3.39758 0.310874 1 1
476 1 4.45092 15.1461 4.45865 -5.34328 15.0098 4.49331 1 1
477 1 4.48295 16.9308 6.29611 -2.37729 0.298778 -0.392636 1 1
478 1 6.26455 15.1503 6.24884 5.2719 -5.30538 -2.41237 1 1
479 1 6.25343 16.9136 4.44449 3.92493 -6.30799 6.66893 1 1
480 1 7.1549 16.0292 5.38552 6.49835 2.68299 -5.44223 1 1
481 1 8.95943 14.2856 5.34678 5.38603 1.26082 8.00886 1 1
482 1 8.91878 16.0307 3.60147 2.44702 5.11389 -6.30783 1 1
483 1 8.05524 15.159 4.54726 -0.230736 -0.496224 -5.50455 1 1
484 1 8.03445 16.9182 6.3008 -3.51663 -2.5807 12.4914 1 1
485 1 9.8049 15.1478 6.266 -5.33185 3.84259 2.24974 1 1
486 1 9.79081 16.9022 4.49679 -4.42862 6.24381 -3.05505 1 1
487 1 10.7352 16.067 5.39232 -2.67841 2.15513 1.23974 1 1
488 1 8.92131 17.786 5.42559 6.08189 4.68313 2.72802 1 1
489 1 10.7059 17.8212 3.60856 -3.85951 -2.96504 0.886309 1 1
490 1 12.4412 14.3137 5.40415 -4.61995 0.807414 1.41773 1 1
491 1 12.4587 16.0266 3.57716 3.38905 -6.43173 -1.04978 1 1
492 1 11.5306 15.1393 4.51776 0.579693 0.498426 -4.12601 1 1
493 1 11.6245 16.9561 6.25847 4.63833 5.97336 2.79863 1 1
494 1 13.3879 16.9866 4.47296 1.77058 -1.46958 2.38544 1 1
495 1 13.3269 15.1654 6.2877 -0.21988 9.00597 -3.82617 1 1
496 1 12.4977 17.8634 5.37258 -7.23073 -5.07005 4.14854 1 1
497 1 14.2672 14.2349 3.5825 1.70695 6.34558 -3.16815 1 1
498 1 16.1057 14.2774 5.42117 3.40717 2.8688 -2.13267 1 1
499 1 17.8336 14.3204 3.64366 -0.315124 3.58408 3.09045 1 1
500 1 14.2609 16.0528 5.3567 -5.77154 -2.55063 -3.41548 1 1
501 1 14.3132 17.8384 3.57051 -4.70019 7.39531 1.49442 1 1
502 1 16.0354 16.0525 3.54058 -3.13637 8.36597 0.46017 1 1
503 1 15.209 15.1535 4.47146 0.354429 -2.28705 1.27621 1 1
504 1 16.9701 16.9447 4.46177 3.43637 -0.891273 6.06709 1 1
505 1 16.9483 15.1599 6.3039 3.43194 0.578911 5.96066 1 1
506 1 17.8115 16.0599 5.32552 -2.9972 -7.33831 -2.7851 1 1
507 1 19.5884 14.2445 5.34765 -3.16431 -1.94271 -3.67644 1 1
508 1 19.6561 16.0296 3.53338 2.45127 -5.75026 -4.99409 1 1
509 1 18.7414 15.1814 4.48354 4.7924 -1.58803 -0.0278681 1 1
510 1 20.4977 16.9363 4.48796 -2.1259 1.13529 -5.16756 1 1
511 1 19.6388 17.8353 5.39325 -1.17524 -2.23893 4.7339 1 1
512 1 20.4543 15.1603 6.25237 -3.32374 -6.23521 -2.38681 1 1
513 1 1.82324 19.5993 3.54758 2.75624 0.690951 -4.77669 1 1
514 1 0.901129 18.7255 4.46359 -6.59036 2.68269 -0.0440995 1 1
515 1 0.924251 20.5139 6.25562 -1.10815 -6.26111 3.8988 1 1
516 1 2.72045 20.4866 4.49152 -2.79216 1.38191 0.355011 1 1
517 1 0.000596853 17.8092 3.60654 1.74531 -2.65042 -9.17623 1 1
518 1 21.4071 19.6058 5.37156 8.98652 -5.66772 -2.62666 1 1
519 1 2.73564 18.7095 6.28014 10.5474 -6.38338 -2.68908 1 1
520 1 5.36777 17.7988 5.39388 0.887526 3.43158 3.61768 1 1
521 1 3.58193 17.8243 3.58641 -0.608357 -3.66894 -0.150482 1 1
522 1 3.60852 19.6129 5.38338 7.21438 -4.46334 1.01591 1 1
523 1 5.3617 19.6129 3.57069 -8.70269 -4.66731 -1.45555 1 1
524 1 4.51444 18.6895 4.44915 1.43572 -4.19315 3.94389 1 1
525 1 4.48351 20.5191 6.26375 5.77228 1.88704 1.39548 1 1
526 1 6.2676 18.6964 6.30874 -5.68944 -7.76407 0.160065 1 1
527 1 6.29652 20.4688 4.48793 5.14398 -7.81707 -4.67818 1 1
528 1 7.13755 17.7954 3.61922 -1.54034 1.104 0.758206 1 1
529 1 7.14876 19.5887 5.38284 4.08276 -4.27852 2.41834 1 1
530 1 8.93247 0.0514624 5.42292 -1.93602 -8.01882 3.17603 1 1
531 1 8.88787 19.6245 3.62682 -6.33075 -0.875679 -9.51391 1 1
532 1 8.01302 18.7115 4.50688 3.56247 5.77148 -3.65265 1 1
533 1 8.05382 20.5045 6.26294 5.32585 -9.77836 0.244203 1 1
534 1 9.81863 18.7058 6.2665 4.02235 2.45407 -3.98171 1 1
535 1 9.82571 20.512 4.48711 -7.0785 2.74895 -0.172583 1 1
536 1 10.6813 19.5893 5.38772 2.13124 6.0865 -1.54714 1 1
537 1 10.7302 -0.0203159 3.55427 -5.84963 1.90767 1.77244 1 1
538 1 12.4516 19.6283 3.60658 -7.83713 3.33665 4.24596 1 1
539 1 11.5753 18.7572 4.49076 -1.44417 -3.15238 8.53639 1 1
540 1 13.4019 18.7543 6.26898 -0.0169602 5.49667 2.42152 1 1
541 1 13.3614 20.5187 4.49191 -13.2318 -5.09947 2.85534 1 1
542 1 16.1329 17.8333 5.36091 -2.84633 -2.09156 -7.43483 1 1
543 1 14.2877 0.00659251 3.57129 10.504 -2.97377 4.06588 1 1
544 1 14.2497 19.5859 5.3566 1.64711 -4.97025 -3.18246 1 1
545 1 16.0692 19.612 3.59279 -3.67299 2.04197 -3.14575 1 1
546 1 15.2022 18.7188 4.44666 6.64121 -2.96616 9.30085 1 1
547 1 16.9824 18.8003 6.25382 -6.56179 -3.64413 -1.7104 1 1
548 1 16.925 20.5272 4.50895 -7.35514 -0.777771 -1.77761 1 1
549 1 17.8688 19.6275 5.38647 -1.76972 11.1646 -2.57975 1 1
550 1 17.8938 17.8493 3.58221 -6.3419 -2.33842 -5.25705 1 1
551 1 19.5823 19.6199 3.61468 3.72268 2.54715 2.74836 1 1
552 1 18.7415 18.7242 4.51077 -5.16463 -0.911146 3.31761 1 1
553 1 18.7443 20.513 6.30436 -10.4742 2.46694 -2.88679 1 1
554 1 20.503 18.7318 6.29358 -0.329461 7.11799 5.25941 1 1