ITEM: TIMESTEP
0
ITEM: NUMBER OF ATOMS
2952
ITEM: BOX BOUNDS pp pp mm
0.0000000000000000e+00 2.1394294200000001e+01
0.0000000000000000e+00 2.1394294200000001e+01
-4.4571446250000002e-01 5.3485735500000004e+01
ITEM: ATOMS id type x y z vx vy vz v_is_diamond c_structure_type
1 1 0 0 0 0 0 0 1 3
2 1 0.0531654 1.78799 1.77705 -3.87607 1.9743 -0.807183 1 1
3 1 1.79743 0.0281081 1.78881 1.69803 -0.451906 5.80198 1 1
4 1 1.78286 1.78286 0 0 0 0 1 3
5 1 0.891429 0.891429 0.891429 0 0 0 1 2
6 1 0.900135 2.72292 2.62895 0.531239 1.39612 -2.96629 1 1
7 1 2.63284 0.957313 2.66908 -0.875744 5.95518 -4.78904 1 1
8 1 2.67429 2.67429 0.891429 0 0 0 1 2
9 1 3.56572 0 0 0 0 0 1 3
10 1 3.56845 1.80643 1.77038 1.69784 3.53044 -2.06099 1 1
11 1 5.29435 21.3941 1.83788 -4.36976 7.51699 8.04279 1 1
12 1 5.34857 1.78286 0 0 0 0 1 3
13 1 4.45714 0.891429 0.891429 0 0 0 1 2
14 1 4.46019 2.66985 2.77715 1.28127 -8.54939 -3.09224 1 1
15 1 6.20979 0.910018 2.66985 -3.14819 6.73752 -1.37376 1 1
16 1 6.24 2.67429 0.891429 0 0 0 1 2
17 1 7.13143 0 0 0 0 0 1 3
18 1 7.10824 1.77072 1.75433 -7.94895 3.24879 3.74933 1 1
19 1 8.91408 0.0263131 1.74075 -2.76931 -5.40773 -1.46747 1 1
20 1 8.91429 1.78286 0 0 0 0 1 3
21 1 8.02286 0.891429 0.891429 0 0 0 1 2
22 1 7.9653 2.66383 2.65774 -1.76681 -0.936874 -0.00902884 1 1
23 1 9.76131 0.876932 2.64739 0.613986 -0.962238 -0.833451 1 1
24 1 9.80572 2.67429 0.891429 0 0 0 1 2
25 1 10.6971 0 0 0 0 0 1 3
26 1 10.693 1.75895 1.76463 2.1168 1.37197 -0.502305 1 1
27 1 12.4528 21.3932 1.82807 0.304367 -0.863431 0.168167 1 1
28 1 12.48 1.78286 0 0 0 0 1 3
29 1 11.5886 0.891429 0.891429 0 0 0 1 2
30 1 11.5488 2.64345 2.66128 -0.564024 6.21331 -1.92153 1 1
31 1 13.3595 0.858745 2.71417 11.5975 -1.73871 6.36264 1 1
32 1 13.3714 2.67429 0.891429 0 0 0 1 2
33 1 14.2629 0 0 0 0 0 1 3
34 1 14.2351 1.78733 1.8294 -4.64825 -5.98134 -1.17434 1 1
35 1 16.0439 0.0182102 1.80078 -0.114716 -1.34608 7.92135 1 1
36 1 16.0457 1.78286 0 0 0 0 1 3
37 1 15.1543 0.891429 0.891429 0 0 0 1 2
38 1 15.1671 2.66054 2.70312 -1.49836 1.20676 -1.23939 1 1
39 1 16.9353 0.871832 2.6523 -2.04623 3.34089 3.11795 1 1
40 1 16.9371 2.67429 0.891429 0 0 0 1 2
41 1 17.8286 0 0 0 0 0 1 3
42 1 17.8101 1.76242 1.7555 -3.63522 -1.32275 -3.48787 1 1
43 1 19.5897 0.0420467 1.73039 6.22184 2.71885 8.19157 1 1
44 1 19.6114 1.78286 0 0 0 0 1 3
45 1 18.72 0.891429 0.891429 0 0 0 1 2
46 1 18.7313 2.66521 2.66904 2.43082 3.29178 -0.435879 1 1
47 1 20.5349 0.906584 2.65759 -3.71885 8.39173 -3.37305 1 1
48 1 20.5029 2.67429 0.891429 0 0 0 1 2
49 1 0 3.56572 0 0 0 0 1 3
50 1 0.0121902 5.36087 1.78468 1.9447 3.90083 -3.38684 1 1
51 1 1.83653 3.59607 1.78737 -2.89253 0.653922 -0.936836 1 1
52 1 1.78286 5.34857 0 0 0 0 1 3
53 1 0.891429 4.45714 0.891429 0 0 0 1 2
54 1 0.914577 6.25015 2.69649 2.02953 -0.542958 5.13744 1 1
55 1 2.7326 4.45924 2.69011 -7.32435 1.60539 3.4559 1 1
56 1 2.67429 6.24 0.891429 0 0 0 1 2
57 1 3.56572 3.56572 0 0 0 0 1 3
58 1 3.5854 5.36946 1.78858 -1.51394 -7.03923 -0.851981 1 1
59 1 5.32988 3.57156 1.79928 -2.53861 0.689477 -0.244291 1 1
60 1 5.34857 5.34857 0 0 0 0 1 3
61 1 4.45714 4.45714 0.891429 0 0 0 1 2
62 1 4.46304 6.24616 2.69689 6.15906 0.516389 -4.91401 1 1
63 1 6.22761 4.46988 2.69464 5.42683 0.86465 1.35923 1 1
64 1 6.24 6.24 0.891429 0 0 0 1 2
65 1 7.13143 3.56572 0 0 0 0 1 3
66 1 7.1186 5.37547 1.76186 -1.22094 -2.10169 -0.486083 1 1
67 1 8.93177 3.59119 1.80181 0.368479 0.619861 9.50305 1 1
68 1 8.91429 5.34857 0 0 0 0 1 3
69 1 8.02286 4.45714 0.891429 0 0 0 1 2
70 1 8.01961 6.21623 2.67526 0.690576 2.53149 3.69565 1 1
71 1 9.81665 4.45705 2.70277 -0.39591 -0.6401 0.439298 1 1
72 1 9.80572 6.24 0.891429 0 0 0 1 2
73 1 10.6971 3.56572 0 0 0 0 1 3
74 1 10.6846 5.34165 1.81863 6.78075 -4.00853 5.17703 1 1
75 1 12.4503 3.54383 1.77717 4.22202 2.31996 1.32797 1 1
76 1 12.48 5.34857 0 0 0 0 1 3
77 1 11.5886 4.45714 0.891429 0 0 0 1 2
78 1 11.5694 6.23931 2.68391 -3.77281 12.4879 7.53755 1 1
79 1 13.3621 4.45792 2.64503 3.24057 -2.08099 5.53171 1 1
80 1 13.3714 6.24 0.891429 0 0 0 1 2
81 1 14.2629 3.56572 0 0 0 0 1 3
82 1 14.2784 5.33763 1.76376 0.787222 5.98013 -1.36466 1 1
83 1 16.0478 3.5286 1.77775 -5.63531 -2.16753 4.98337 1 1
84 1 16.0457 5.34857 0 0 0 0 1 3
85 1 15.1543 4.45714 0.891429 0 0 0 1 2
86 1 15.1819 6.20225 2.70431 4.1388 -2.12871 -5.68807 1 1
87 1 16.9254 4.43803 2.65894 6.36147 -7.173 -2.14704 1 1
88 1 16.9371 6.24 0.891429 0 0 0 1 2
89 1 17.8286 3.56572 0 0 0 0 1 3
90 1 17.8406 5.35838 1.78234 -9.1737 0.960817 0.628757 1 1
91 1 19.6217 3.55353 1.79614 -4.01222 -1.96087 -8.77122 1 1
92 1 19.6114 5.34857 0 0 0 0 1 3
93 1 18.72 4.45714 0.891429 0 0 0 1 2
94 1 18.7942 6.20463 2.62612 -5.75247 2.45995 -0.581526 1 1
95 1 20.5397 4.42165 2.68621 -0.554221 -2.54003 10.6314 1 1
96 1 20.5029 6.24 0.891429 0 0 0 1 2
97 1 0 7.13143 0 0 0 0 1 3
98 1 0.02256 8.88607 1.75798 8.48603 -1.06866 -0.394387 1 1
99 1 1.80397 7.10887 1.78939 -1.13502 -1.29384 0.0512102 1 1
100 1 1.78286 8.91429 0 0 0 0 1 3
101 1 0.891429 8.02286 0.891429 0 0 0 1 2
102 1 0.897215 9.79951 2.64303 -0.612437 -1.66785 7.01411 1 1
103 1 2.68007 7.95314 2.70045 7.73107 5.27314 -7.75864 1 1
104 1 2.67429 9.80572 0.891429 0 0 0 1 2
105 1 3.56572 7.13143 0 0 0 0 1 3
106 1 3.56792 8.8681 1.80325 -3.56392 -5.26944 -8.4213 1 1
107 1 5.35334 7.11804 1.82045 4.96366 -3.11558 2.86596 1 1
108 1 5.34857 8.91429 0 0 0 0 1 3
109 1 4.45714 8.02286 0.891429 0 0 0 1 2
110 1 4.46716 9.79028 2.72106 -0.51858 -2.26045 -5.95305 1 1
111 1 6.26686 8.02558 2.68068 3.74526 3.42709 2.77033 1 1
112 1 6.24 9.80572 0.891429 0 0 0 1 2
113 1 7.13143 7.13143 0 0 0 0 1 3
114 1 7.16058 8.91018 1.8246 -1.90953 -10.6618 -4.18008 1 1
115 1 8.91433 7.11327 1.76809 -1.76839 0.935693 5.63732 1 1
116 1 8.91429 8.91429 0 0 0 0 1 3
117 1 8.02286 8.02286 0.891429 0 0 0 1 2
118 1 8.03406 9.81228 2.70451 5.3984 3.00496 -0.302605 1 1
119 1 9.7554 8.01064 2.66666 -3.88187 -3.14522 0.513871 1 1
120 1 9.80572 9.80572 0.891429 0 0 0 1 2
121 1 10.6971 7.13143 0 0 0 0 1 3
122 1 10.646 8.91623 1.78388 -2.12096 -1.6812 3.44723 1 1
123 1 12.4875 7.13554 1.84145 -0.716413 -5.58808 0.124324 1 1
124 1 12.48 8.91429 0 0 0 0 1 3
125 1 11.5886 8.02286 0.891429 0 0 0 1 2
126 1 11.553 9.83605 2.67427 2.16916 -1.3082 12.6133 1 1
127 1 13.4077 7.99146 2.69132 -1.89133 -0.235602 3.73183 1 1
128 1 13.3714 9.80572 0.891429 0 0 0 1 2
129 1 14.2629 7.13143 0 0 0 0 1 3
130 1 14.2929 8.89557 1.75832 0.532169 0.227977 0.92147 1 1
131 1 16.089 7.12053 1.7764 -0.00869664 0.936741 -0.153304 1 1
132 1 16.0457 8.91429 0 0 0 0 1 3
133 1 15.1543 8.02286 0.891429 0 0 0 1 2
134 1 15.1331 9.78856 2.65856 -0.446015 -2.5819 5.34489 1 1
135 1 16.9927 7.99763 2.65475 -1.07313 5.05489 6.59525 1 1
136 1 16.9371 9.80572 0.891429 0 0 0 1 2
137 1 17.8286 7.13143 0 0 0 0 1 3
138 1 17.8543 8.93468 1.7713 -2.50888 3.19206 8.07839 1 1
139 1 19.6554 7.12974 1.78629 -7.15474 2.85169 3.27739 1 1
140 1 19.6114 8.91429 0 0 0 0 1 3
141 1 18.72 8.02286 0.891429 0 0 0 1 2
142 1 18.6958 9.77179 2.69322 4.46736 -11.1022 2.40088 1 1
143 1 20.5019 8.00923 2.69652 -5.97191 3.3387 1.94976 1 1
144 1 20.5029 9.80572 0.891429 0 0 0 1 2
145 1 0 10.6971 0 0 0 0 1 3
146 1 0.0200796 12.5035 1.78564 -1.31415 4.84525 10.9626 1 1
147 1 1.77904 10.7098 1.80176 -0.609408 4.61057 1.60118 1 1
148 1 1.78286 12.48 0 0 0 0 1 3
149 1 0.891429 11.5886 0.891429 0 0 0 1 2
150 1 0.891326 13.378 2.71458 -1.1385 3.0194 5.10862 1 1
151 1 2.63561 11.5962 2.68135 -0.998015 -3.37015 -1.6958 1 1
152 1 2.67429 13.3714 0.891429 0 0 0 1 2
153 1 3.56572 10.6971 0 0 0 0 1 3
154 1 3.53612 12.5312 1.75445 -5.52666 2.21415 6.98699 1 1
155 1 5.37466 10.6605 1.78196 -3.24688 0.283514 3.35979 1 1
156 1 5.34857 12.48 0 0 0 0 1 3
157 1 4.45714 11.5886 0.891429 0 0 0 1 2
158 1 4.46176 13.3829 2.67634 0.0847266 17.6441 4.97543 1 1
159 1 6.2085 11.5411 2.58932 3.7597 8.81544 -10.2331 1 1
160 1 6.24 13.3714 0.891429 0 0 0 1 2
161 1 7.13143 10.6971 0 0 0 0 1 3
162 1 7.10678 12.4901 1.76624 -3.79118 -5.21405 -8.06555 1 1
163 1 8.94683 10.695 1.78104 3.57443 0.712517 1.48262 1 1
164 1 8.91429 12.48 0 0 0 0 1 3
165 1 8.02286 11.5886 0.891429 0 0 0 1 2
166 1 7.99253 13.3384 2.67092 2.38399 2.05958 -0.00217904 1 1
167 1 9.83311 11.5663 2.65063 0.535893 -5.81897 0.581861 1 1
168 1 9.80572 13.3714 0.891429 0 0 0 1 2
169 1 10.6971 10.6971 0 0 0 0 1 3
170 1 10.6465 12.4823 1.77442 -2.52515 0.514232 -12.6791 1 1
171 1 12.4598 10.6651 1.79069 -4.18927 2.00386 -1.24304 1 1
172 1 12.48 12.48 0 0 0 0 1 3
173 1 11.5886 11.5886 0.891429 0 0 0 1 2
174 1 11.6252 13.3727 2.62229 0.544778 0.461743 0.66055 1 1
175 1 13.3834 11.5532 2.67048 0.63672 0.328958 -1.34812 1 1
176 1 13.3714 13.3714 0.891429 0 0 0 1 2
177 1 14.2629 10.6971 0 0 0 0 1 3
178 1 14.2824 12.4279 1.77299 0.716573 1.85803 -2.80701 1 1
179 1 16.0296 10.6879 1.79037 7.33047 -2.37598 -3.55279 1 1
180 1 16.0457 12.48 0 0 0 0 1 3
181 1 15.1543 11.5886 0.891429 0 0 0 1 2
182 1 15.1758 13.3745 2.68948 -2.28749 -0.983472 -7.14399 1 1
183 1 16.9793 11.6114 2.67719 8.35397 -0.906436 4.0373 1 1
184 1 16.9371 13.3714 0.891429 0 0 0 1 2
185 1 17.8286 10.6971 0 0 0 0 1 3
186 1 17.816 12.4794 1.77813 -3.42284 -0.451996 3.00776 1 1
187 1 19.6391 10.7048 1.79299 5.7936 1.94975 -2.31543 1 1
188 1 19.6114 12.48 0 0 0 0 1 3
189 1 18.72 11.5886 0.891429 0 0 0 1 2
190 1 18.7312 13.3867 2.63234 1.20015 -4.64882 8.60102 1 1
191 1 20.4848 11.6354 2.68844 -0.79274 5.9325 3.28043 1 1
192 1 20.5029 13.3714 0.891429 0 0 0 1 2
193 1 0 14.2629 0 0 0 0 1 3
194 1 0.0165169 16.0251 1.77823 -0.831815 7.98784 -9.68774 1 1
195 1 1.80746 14.2634 1.77597 4.07386 -4.33237 3.4202 1 1
196 1 1.78286 16.0457 0 0 0 0 1 3
197 1 0.891429 15.1543 0.891429 0 0 0 1 2
198 1 0.837868 16.9189 2.67567 -0.596373 2.61002 -8.78941 1 1
199 1 2.69138 15.1585 2.65756 -4.43639 2.07536 -0.520423 1 1
200 1 2.67429 16.9371 0.891429 0 0 0 1 2
201 1 3.56572 14.2629 0 0 0 0 1 3
202 1 3.59456 16.107 1.7781 9.89466 -7.43676 1.06582 1 1
203 1 5.3681 14.2482 1.79413 11.1582 -0.0722455 3.83463 1 1
204 1 5.34857 16.0457 0 0 0 0 1 3
205 1 4.45714 15.1543 0.891429 0 0 0 1 2
206 1 4.48738 16.9666 2.70961 -0.00743526 2.71859 -2.43139 1 1
207 1 6.27509 15.175 2.66076 -3.46322 -1.77331 -2.48546 1 1
208 1 6.24 16.9371 0.891429 0 0 0 1 2
209 1 7.13143 14.2629 0 0 0 0 1 3
210 1 7.14508 16.0535 1.76967 -0.17785 0.579782 -8.87417 1 1
211 1 8.87992 14.2715 1.76625 3.14259 -0.7865 -1.18044 1 1
212 1 8.91429 16.0457 0 0 0 0 1 3
213 1 8.02286 15.1543 0.891429 0 0 0 1 2
214 1 8.03345 16.9618 2.70835 1.80086 5.24702 -11.9227 1 1
215 1 9.78378 15.1522 2.697 -3.24093 -1.88752 -3.3624 1 1
216 1 9.80572 16.9371 0.891429 0 0 0 1 2
217 1 10.6971 14.2629 0 0 0 0 1 3
218 1 10.7095 16.0524 1.77304 -0.520637 1.04702 5.9925 1 1
219 1 12.5095 14.2555 1.70835 -1.22986 6.49359 0.740797 1 1
220 1 12.48 16.0457 0 0 0 0 1 3
221 1 11.5886 15.1543 0.891429 0 0 0 1 2
222 1 11.5924 16.9912 2.68296 3.40455 4.71622 -5.58301 1 1
223 1 13.3786 15.1185 2.61054 1.47366 -2.57934 1.13027 1 1
224 1 13.3714 16.9371 0.891429 0 0 0 1 2
225 1 14.2629 14.2629 0 0 0 0 1 3
226 1 14.264 16.0192 1.77474 -4.04259 5.69607 -4.02372 1 1
227 1 16.0517 14.2637 1.74832 -2.49519 -10.6917 2.24414 1 1
228 1 16.0457 16.0457 0 0 0 0 1 3
229 1 15.1543 15.1543 0.891429 0 0 0 1 2
230 1 15.149 16.9485 2.68009 1.76381 -5.47548 3.83501 1 1
231 1 16.9258 15.1529 2.69733 2.20217 13.5845 0.857647 1 1
232 1 16.9371 16.9371 0.891429 0 0 0 1 2
233 1 17.8286 14.2629 0 0 0 0 1 3
234 1 17.8341 16.0777 1.786 -6.4015 3.05358 -2.64542 1 1
235 1 19.612 14.2859 1.74618 1.05558 9.65688 -0.319421 1 1
236 1 19.6114 16.0457 0 0 0 0 1 3
237 1 18.72 15.1543 0.891429 0 0 0 1 2
238 1 18.6949 16.9608 2.66946 -0.387602 1.11734 -3.49967 1 1
239 1 20.5506 15.1661 2.67335 7.06751 -1.23846 -1.18293 1 1
240 1 20.5029 16.9371 0.891429 0 0 0 1 2
241 1 0 17.8286 0 0 0 0 1 3
242 1 0.0165569 19.5908 1.79395 6.45259 0.520075 -7.06789 1 1
243 1 1.76969 17.8624 1.7598 0.649799 -1.50316 6.79325 1 1
244 1 1.78286 19.6114 0 0 0 0 1 3
245 1 0.891429 18.72 0.891429 0 0 0 1 2
246 1 0.87735 20.531 2.69268 -3.62039 5.10121 7.74451 1 1
247 1 2.67042 18.7483 2.68172 2.7302 5.21997 1.3094 1 1
248 1 2.67429 20.5029 0.891429 0 0 0 1 2
249 1 3.56572 17.8286 0 0 0 0 1 3
250 1 3.55389 19.6154 1.77923 -4.32202 -0.769755 -13.2938 1 1
251 1 5.35328 17.833 1.7869 0.0969723 4.35833 1.53399 1 1
252 1 5.34857 19.6114 0 0 0 0 1 3
253 1 4.45714 18.72 0.891429 0 0 0 1 2
254 1 4.47771 20.4965 2.69237 -3.8751 7.05832 -1.51802 1 1
255 1 6.25401 18.7429 2.66769 5.23135 -5.68605 -3.78034 1 1
256 1 6.24 20.5029 0.891429 0 0 0 1 2
257 1 7.13143 17.8286 0 0 0 0 1 3
258 1 7.11752 19.6219 1.77865 -4.11589 -7.26956 1.66421 1 1
259 1 8.91915 17.8666 1.82397 -8.98577 2.45308 1.77388 1 1
260 1 8.91429 19.6114 0 0 0 0 1 3
261 1 8.02286 18.72 0.891429 0 0 0 1 2
262 1 8.07958 20.5009 2.64401 3.28604 -0.272922 4.83689 1 1
263 1 9.80581 18.749 2.74011 -0.416784 -0.301652 -4.20771 1 1
264 1 9.80572 20.5029 0.891429 0 0 0 1 2
265 1 10.6971 17.8286 0 0 0 0 1 3
266 1 10.6634 19.6664 1.80163 6.7845 -0.249666 0.11268 1 1
267 1 12.4475 17.8796 1.77789 2.69436 7.89051 -1.39234 1 1
268 1 12.48 19.6114 0 0 0 0 1 3
269 1 11.5886 18.72 0.891429 0 0 0 1 2
270 1 11.5813 20.5165 2.68803 0.281207 -0.353898 5.86551 1 1
271 1 13.3825 18.7553 2.67258 0.729496 0.933626 2.89434 1 1
272 1 13.3714 20.5029 0.891429 0 0 0 1 2
273 1 14.2629 17.8286 0 0 0 0 1 3
274 1 14.2616 19.6217 1.77217 -0.740457 -8.51025 3.69622 1 1
275 1 16.0677 17.8259 1.76959 2.58305 -2.08229 2.64519 1 1
276 1 16.0457 19.6114 0 0 0 0 1 3
277 1 15.1543 18.72 0.891429 0 0 0 1 2
278 1 15.15 20.5162 2.66573 10.463 1.99957 2.53641 1 1
279 1 16.9531 18.7019 2.6574 11.768 -3.16406 3.07397 1 1
280 1 16.9371 20.5029 0.891429 0 0 0 1 2
281 1 17.8286 17.8286 0 0 0 0 1 3
282 1 17.8427 19.6082 1.78544 -0.102949 -0.153697 1.49572 1 1
283 1 19.6177 17.8108 1.77935 -1.63795 7.49254 -5.31862 1 1
284 1 19.6114 19.6114 0 0 0 0 1 3
285 1 18.72 18.72 0.891429 0 0 0 1 2
286 1 18.7278 20.5057 2.66069 -4.55624 8.31732 0.928305 1 1
287 1 20.5189 18.7579 2.66668 3.31515 1.00864 -0.117736 1 1
288 1 20.5029 20.5029 0.891429 0 0 0 1 2
289 1 21.3742 0.0640894 3.53948 11.0888 0.976 4.31901 1 1
290 1 21.3782 1.80003 5.36601 -5.00102 2.05662 -0.530555 1 1
291 1 1.72069 0.0541918 5.38343 -0.727646 5.69965 0.893874 1 1
292 1 1.79601 1.79796 3.59644 1.82161 -10.8798 2.38739 1 1
293 1 0.892822 0.896645 4.46211 6.63658 3.02478 4.19113 1 1
294 1 0.883877 2.66576 6.32324 1.58634 0.916852 5.68533 1 1
295 1 2.69806 0.853261 6.27892 -3.05679 -4.77871 0.19513 1 1
296 1 2.67414 2.68583 4.50819 11.0308 3.85345 -2.91927 1 1
297 1 3.57661 0.0266991 3.59453 -6.78975 5.84554 -2.10062 1 1
298 1 3.52613 1.75645 5.39656 -5.85108 -0.692201 8.72943 1 1
299 1 5.36145 21.3792 5.41449 -8.30843 -7.20403 2.48622 1 1
300 1 5.30939 1.77599 3.59997 -4.12444 9.54004 0.803559 1 1
301 1 4.42518 0.864215 4.45153 3.23229 -7.47197 -9.13774 1 1
302 1 4.45706 2.70465 6.26183 -11.765 2.83456 5.3343 1 1
303 1 6.19847 0.886815 6.27428 -1.52595 -2.64047 0.443867 1 1
304 1 6.21183 2.67787 4.47099 6.0226 -6.57504 1.82501 1 1
305 1 7.10518 0.0108218 3.57092 1.60408 -1.04891 4.93683 1 1
306 1 7.14258 1.77202 5.36052 1.50113 2.15369 6.0164 1 1
307 1 8.91131 0.0145191 5.3746 -3.62028 1.60271 7.50421 1 1
308 1 8.84766 1.74214 3.52131 4.51297 -3.61529 3.09525 1 1
309 1 7.97901 0.895537 4.4524 -5.8414 -0.93878 -8.84713 1 1
310 1 8.00935 2.66649 6.27406 6.82727 0.498135 0.687322 1 1
311 1 9.78754 0.90276 6.28755 0.495287 -10.5957 8.70242 1 1
312 1 9.79112 2.65927 4.43059 5.81043 3.91555 -1.35355 1 1
313 1 10.6611 0.00822211 3.56404 -2.29821 4.18667 0.346247 1 1
314 1 10.6589 1.77537 5.37069 -7.93836 6.44519 -4.69098 1 1
315 1 12.4896 21.3764 5.31383 -5.00585 -3.02649 -0.97596 1 1
316 1 12.4809 1.7647 3.59353 -1.30103 1.77505 -4.13738 1 1
317 1 11.5546 0.875266 4.45801 -6.59151 -3.44433 -3.01129 1 1
318 1 11.5279 2.65865 6.28065 5.62674 0.573463 4.55819 1 1
319 1 13.3358 0.871684 6.23523 -1.00754 6.34369 -1.24419 1 1
320 1 13.3171 2.6505 4.50655 6.14327 -4.36734 -5.48308 1 1
321 1 14.2726 21.3929 3.60694 -5.83175 4.79134 -4.96437 1 1
322 1 14.2201 1.77593 5.38682 3.26686 -3.19869 3.45095 1 1
323 1 16.0416 21.3477 5.35611 0.286299 0.792846 -4.76943 1 1
324 1 16.0593 1.73307 3.57919 6.183 -0.429048 -6.64675 1 1
325 1 15.1472 0.852659 4.48154 6.0588 6.52329 -2.81637 1 1
326 1 15.1574 2.65956 6.28698 0.257806 4.82573 -2.97367 1 1
327 1 16.8929 0.853067 6.23696 -3.11487 -0.390481 0.58982 1 1
328 1 16.984 2.60654 4.48265 -4.76665 2.4495 -2.58216 1 1
329 1 17.8371 21.3777 3.57893 5.60845 -0.292562 -3.42426 1 1
330 1 17.8023 1.77029 5.40135 6.73294 -0.936029 4.11284 1 1
331 1 19.6096 21.3625 5.41424 -1.60482 -0.456133 0.865134 1 1
332 1 19.6138 1.78755 3.59297 -3.16892 2.27657 3.17496 1 1
333 1 18.747 0.863941 4.43426 4.16689 5.64573 3.10565 1 1
334 1 18.6703 2.62153 6.27301 -6.81361 0.515012 -0.742594 1 1
335 1 20.511 0.890714 6.28284 0.558205 1.25757 -6.21639 1 1
336 1 20.5058 2.65934 4.4257 -2.62759 -4.17787 0.327853 1 1
337 1 21.3756 3.54187 3.56171 -0.229544 1.68276 5.00468 1 1
338 1 0.00984273 5.3041 5.39375 10.4257 3.6099 1.52611 1 1
339 1 1.76861 3.55894 5.40632 -0.749031 -0.886735 -2.55143 1 1
340 1 1.82044 5.38136 3.60986 0.292036 3.19097 -0.836281 1 1
341 1 0.882154 4.43939 4.49649 2.24974 -5.40806 -1.3833 1 1
342 1 0.918488 6.26523 6.22973 2.68109 0.23916 -5.16304 1 1
343 1 2.69784 4.47313 6.28175 0.831099 -1.4843 0.700338 1 1
344 1 2.68067 6.23631 4.47139 5.02099 8.81758 -2.99526 1 1
345 1 3.56512 3.58972 3.68873 0.894627 -0.531874 4.8771 1 1
346 1 3.5743 5.3788 5.38986 11.3853 4.29737 3.85833 1 1
347 1 5.37693 3.5406 5.40247 -4.43303 -2.46399 -0.872091 1 1
348 1 5.33262 5.34161 3.60296 -1.661 -4.40316 -3.53265 1 1
349 1 4.47785 4.45499 4.53276 3.43651 -0.386827 4.11993 1 1
350 1 4.48678 6.22377 6.29551 -1.16794 5.58827 3.31632 1 1
351 1 6.27297 4.44562 6.30205 3.58983 7.07326 -4.403 1 1
352 1 6.25133 6.24338 4.47463 7.69402 -6.98684 0.277234 1 1
353 1 7.10516 3.55856 3.57989 -2.34991 4.23759 6.72111 1 1
354 1 7.10961 5.32411 5.37738 -3.42037 4.95184 -1.63116 1 1
355 1 8.92886 3.53939 5.35284 2.64235 1.38099 3.78017 1 1
356 1 8.94132 5.34637 3.51942 -9.79786 4.40539 3.30115 1 1
357 1 8.05776 4.43857 4.44749 7.69813 6.3914 1.65625 1 1
358 1 8.02058 6.21701 6.25786 4.98416 -2.67007 4.75192 1 1
359 1 9.7729 4.4652 6.2554 2.36373 0.651059 9.78589 1 1
360 1 9.77669 6.23621 4.48475 5.04034 -1.35713 1.89782 1 1
361 1 10.6674 3.57024 3.58541 13.5567 1.98689 2.94382 1 1
362 1 10.6296 5.32655 5.3634 -5.07318 5.41696 -0.688317 1 1
363 1 12.4684 3.55976 5.39938 -2.54719 -3.51256 5.21595 1 1
364 1 12.4598 5.28292 3.57083 -2.91649 7.75263 -5.58098 1 1
365 1 11.5714 4.44298 4.51315 -0.82073 -2.48888 5.16421 1 1
366 1 11.5896 6.20998 6.27605 -5.96492 -3.50058 -1.27948 1 1
367 1 13.3569 4.45194 6.27231 2.4634 1.55896 0.129301 1 1
368 1 13.359 6.25487 4.45297 -0.908281 7.1601 7.81845 1 1
369 1 14.2581 3.55974 3.60655 -13.1833 0.270318 -1.72608 1 1
370 1 14.2956 5.37442 5.41305 -4.69476 -0.614804 -0.865498 1 1
371 1 16.0428 3.53779 5.40159 0.372149 6.11809 7.90982 1 1
372 1 16.0588 5.30698 3.58848 -10.9586 1.8874 2.35215 1 1
373 1 15.1784 4.4551 4.50028 2.28109 -6.81266 2.79586 1 1
374 1 15.14 6.26279 6.31313 -1.64687 5.74013 7.20458 1 1
375 1 16.9598 4.44462 6.2832 -3.06915 1.49362 8.84497 1 1
376 1 16.9157 6.18592 4.45454 0.950141 -5.30008 1.01842 1 1
377 1 17.8509 3.54201 3.63971 -2.18984 0.368855 -3.63142 1 1
378 1 17.8361 5.3475 5.34586 -2.90876 7.97057 -1.32072 1 1
379 1 19.6181 3.56052 5.35711 -3.8139 -6.56114 -8.308 1 1
380 1 19.665 5.31069 3.55138 10.3682 5.71628 2.63568 1 1
381 1 18.7181 4.45544 4.49699 2.51788 1.60811 -0.792466 1 1
382 1 18.7161 6.24129 6.22985 -2.94671 -2.98634 -5.10886 1 1
383 1 20.4994 4.42901 6.29346 0.117309 -3.53714 8.23854 1 1
384 1 20.4924 6.21135 4.46349 3.5869 -2.53473 -1.16215 1 1
385 1 21.3901 7.10504 3.5477 9.42363 4.7261 5.16286 1 1
386 1 21.3552 8.93288 5.35907 -4.11005 1.31809 3.8714 1 1
387 1 1.79509 7.1447 5.35941 -0.156898 -5.05705 -1.41157 1 1
388 1 1.75786 8.89239 3.54168 7.31874 2.63708 3.41738 1 1
389 1 0.860367 8.00769 4.47339 3.63193 4.34118 1.13066 1 1
390 1 0.890312 9.83106 6.29118 -0.564994 -5.74291 -0.36666 1 1
391 1 2.67511 8.00137 6.27137 6.36123 1.64077 0.0428902 1 1
392 1 2.67006 9.82694 4.46438 -3.60149 -0.558348 0.732527 1 1
393 1 3.55276 7.10434 3.52369 2.09545 6.5552 3.28232 1 1
394 1 3.58492 8.89635 5.37005 0.398222 7.57978 4.88333 1 1
395 1 5.32175 7.12983 5.3614 -2.08075 4.46105 -0.369088 1 1
396 1 5.34146 8.91585 3.58554 1.22437 2.39707 -1.5418 1 1
397 1 4.45706 8.0462 4.44941 7.73586 -0.685553 -2.47836 1 1
398 1 4.44869 9.77771 6.28004 8.08456 -3.7114 -6.54987 1 1
399 1 6.23631 8.0154 6.25285 -2.70374 2.01483 -1.49285 1 1
400 1 6.20528 9.74762 4.45988 3.36322 0.796507 -5.32573 1 1
401 1 7.13743 7.11774 3.6242 1.97651 -6.76601 -0.122708 1 1
402 1 7.18429 8.89855 5.35186 1.0711 -1.65632 3.40896 1 1
403 1 8.90955 7.12658 5.41407 -6.94038 0.532593 -9.39569 1 1
404 1 8.91584 8.91157 3.55337 0.350854 3.05972 2.55743 1 1
405 1 8.03568 8.01401 4.46992 -1.58328 5.19635 1.79024 1 1
406 1 8.0142 9.77667 6.2268 3.54516 2.94192 0.0478517 1 1
407 1 9.79201 8.01808 6.31799 -0.412908 -1.01741 -4.24807 1 1
408 1 9.81603 9.81744 4.44083 3.0067 0.141676 6.20248 1 1
409 1 10.5982 7.13969 3.56566 -1.42887 6.98388 2.48253 1 1
410 1 10.6921 8.91501 5.35362 5.41309 -6.19759 -0.634083 1 1
411 1 12.487 7.1268 5.35601 2.75233 5.1868 2.38788 1 1
412 1 12.4703 8.86488 3.58552 3.74818 7.30055 -2.63461 1 1
413 1 11.5488 8.00971 4.45965 -0.779473 2.00511 -3.23934 1 1
414 1 11.5724 9.77608 6.28174 -4.32547 2.69291 -0.41133 1 1
415 1 13.3818 7.99195 6.25334 0.138233 -5.19041 4.62775 1 1
416 1 13.3661 9.76519 4.48307 -5.43348 -5.02875 0.523333 1 1
417 1 14.281 7.14384 3.58031 -5.61376 -1.21919 3.95557 1 1
418 1 14.2669 8.91048 5.34005 -0.88396 1.29714 -2.39344 1 1
419 1 16.0458 7.17064 5.41221 -6.18654 -1.0179 4.24924 1 1
420 1 16.0301 8.93369 3.60468 -7.46026 0.998444 7.4767 1 1
421 1 15.17 8.03327 4.50403 3.32933 -3.55701 2.42586 1 1
422 1 15.1761 9.79551 6.2529 2.81365 1.7956 1.95688 1 1
423 1 16.9317 8.04149 6.31367 2.37363 2.74313 -4.9054 1 1
424 1 16.9393 9.80272 4.49212 5.47869 1.05775 6.0887 1 1
425 1 17.8414 7.08369 3.57767 1.49219 -13.958 -0.226081 1 1
426 1 17.8269 8.87657 5.42791 -0.0234413 0.878848 -7.08509 1 1
427 1 19.594 7.12717 5.35552 6.35256 10.0736 6.8645 1 1
428 1 19.5898 8.92356 3.55559 -4.64485 5.30618 -6.52864 1 1
429 1 18.7083 8.03961 4.46708 -2.84808 -4.48031 4.30401 1 1
430 1 18.6973 9.84108 6.29202 -1.57936 -0.754222 -0.205951 1 1
431 1 20.4956 8.03762 6.28083 0.785506 0.00413537 4.96312 1 1
432 1 20.4655 9.82153 4.45998 1.97393 -1.52693 0.8442 1 1
433 1 21.3904 10.7268 3.59299 2.17528 0.342147 -4.05223 1 1
434 1 21.3865 12.4449 5.38935 1.34851 -5.50169 -4.39611 1 1
435 1 1.75059 10.7023 5.39699 2.50354 2.25436 -7.91074 1 1
436 1 1.79253 12.5114 3.60571 -0.828412 1.96602 0.0832508 1 1
437 1 0.891954 11.6239 4.50498 -0.84412 -2.66458 -1.74761 1 1
438 1 0.894143 13.3057 6.27472 -2.87411 7.03137 5.31757 1 1
439 1 2.74017 11.5701 6.28642 -1.36433 -8.88216 -9.5186 1 1
440 1 2.66513 13.4051 4.46915 1.21321 -10.7662 -3.53807 1 1
441 1 3.54355 10.6685 3.5345 2.11951 -0.764848 5.28648 1 1
442 1 3.58647 12.4791 5.33578 14.9153 0.45538 0.971774 1 1
443 1 5.37342 10.6427 5.39479 -0.0391427 2.3583 0.051314 1 1
444 1 5.36448 12.4751 3.55543 0.227447 -3.45387 4.60503 1 1
445 1 4.45034 11.5695 4.43704 -0.4677 0.781664 -1.20565 1 1
446 1 4.46024 13.3222 6.25592 -0.647682 2.6737 -1.84795 1 1
447 1 6.26666 11.5608 6.29781 11.4614 -3.47036 2.11282 1 1
448 1 6.24894 13.3781 4.45114 -1.28102 -1.21962 0.705401 1 1
449 1 7.144 10.6418 3.52808 -0.496967 1.07569 4.19096 1 1
450 1 7.13864 12.4608 5.34379 -4.97241 8.63262 -1.40598 1 1
451 1 8.89969 10.7149 5.35673 -1.89325 -4.97348 -0.0494394 1 1
452 1 8.92044 12.4723 3.52767 0.0807426 -1.3697 -2.12704 1 1
453 1 8.025 11.6022 4.45155 0.355516 1.1757 8.29693 1 1
454 1 8.05535 13.3678 6.2676 -2.75033 -0.802291 -0.0526056 1 1
455 1 9.77422 11.6014 6.24777 -0.367637 3.47168 2.97127 1 1
456 1 9.81148 13.3547 4.39973 0.857163 -5.05834 3.02691 1 1
457 1 10.7149 10.6983 3.56026 0.0912745 8.15584 2.79665 1 1
458 1 10.6804 12.4797 5.36432 1.93037 -2.52049 2.07778 1 1
459 1 12.5047 10.6685 5.38029 1.3829 1.42668 1.91355 1 1
460 1 12.4995 12.4394 3.56179 -1.4637 -8.85699 -1.04767 1 1
461 1 11.5846 11.5405 4.50838 -0.33462 4.87324 1.40735 1 1
462 1 11.5271 13.369 6.26407 1.79487 2.99361 -3.04918 1 1
463 1 13.3676 11.6086 6.28973 -5.89068 5.90618 3.8212 1 1
464 1 13.3561 13.3354 4.44816 4.7643 -4.65074 7.7256 1 1
465 1 14.2082 10.6636 3.57188 3.72811 -3.11465 -6.03481 1 1
466 1 14.2742 12.4844 5.37814 9.90011 -0.0351108 4.25408 1 1
467 1 16.0929 10.6798 5.35611 3.78737 -4.22278 1.42433 1 1
468 1 16.0658 12.4741 3.5887 4.21986 5.60496 -7.24075 1 1
469 1 15.16 11.5769 4.45398 6.80669 1.80316 -2.25736 1 1
470 1 15.1109 13.3669 6.31816 0.542191 -2.18132 -1.15605 1 1
471 1 16.9334 11.5908 6.26519 3.20448 -4.34561 -1.68973 1 1
472 1 16.9506 13.3801 4.52681 -10.8463 2.07753 6.02091 1 1
473 1 17.8558 10.6695 3.56751 -1.15047 2.51613 -5.09179 1 1
474 1 17.7967 12.4806 5.42789 7.36494 1.27162 5.21799 1 1
475 1 19.5867 10.7313 5.38442 -0.583177 3.84145 -6.62558 1 1
476 1 19.5632 12.483 3.5469 -4.36764 -4.27934 1.35777 1 1
477 1 18.6986 11.6204 4.45246 -2.74557 8.15765 6.27635 1 1
478 1 18.6999 13.419 6.29485 2.1479 -2.14699 -1.449 1 1
479 1 20.4981 11.6373 6.29749 -5.14188 -4.61041 -1.65802 1 1
480 1 20.4639 13.374 4.46925 -7.74822 -2.99565 -0.0328945 1 1
481 1 21.3633 14.2644 3.58554 1.4253 5.3902 -2.20838 1 1
482 1 0.0196448 16.036 5.37495 -0.501158 -6.64 6.59067 1 1
483 1 1.81864 14.2281 5.37439 7.03605 -2.71008 0.824845 1 1
484 1 1.75379 15.9901 3.59126 9.83589 3.28154 -0.331169 1 1
485 1 0.888513 15.1198 4.48854 -4.22995 -3.08457 8.77441 1 1
486 1 0.926542 16.9167 6.2598 3.89279 -1.55044 4.7885 1 1
487 1 2.66752 15.1447 6.25528 5.99412 1.80078 3.3623 1 1
488 1 2.67072 16.9508 4.47947 -5.27743 1.80485 0.328748 1 1
489 1 3.56362 14.2621 3.56851 -2.59341 0.906106 -5.16383 1 1
490 1 3.53367 16.0281 5.37432 4.76111 4.25997 2.64953 1 1
491 1 5.33012 14.2216 5.34901 -0.310379 10.2084 5.0166 1 1
492 1 5.40819 16.0048 3.56979 -2.85362 -3.32595 -12.3314 1 1
493 1 4.48072 15.1289 4.45804 0.0691638 3.74814 1.95071 1 1
494 1 4.45154 16.8993 6.24518 -1.49604 0.771162 -2.51499 1 1
495 1 6.23853 15.1012 6.24314 -3.14726 0.24125 -5.51344 1 1
496 1 6.25074 16.8676 4.46046 4.1792 4.88879 0.583426 1 1
497 1 7.15341 14.2457 3.59189 5.56503 4.37985 0.928673 1 1
498 1 7.1394 15.993 5.35191 -1.94598 5.63075 1.89536 1 1
499 1 8.95704 14.2707 5.35399 4.73779 -3.04401 2.54303 1 1
500 1 8.9219 16.0539 3.58764 0.798946 -5.81548 0.183085 1 1
501 1 8.03649 15.1108 4.4624 0.675371 2.10734 -7.50047 1 1
502 1 8.05239 16.9439 6.25808 2.2503 -4.35975 -1.93073 1 1
503 1 9.79896 15.1903 6.2625 -9.36018 -0.32489 0.825682 1 1
504 1 9.84283 16.984 4.46379 -4.10603 8.05394 -7.22865 1 1
505 1 10.7189 14.2649 3.52972 8.98729 2.4655 -0.814646 1 1
506 1 10.7344 16.0622 5.40352 -0.481123 -4.68511 -2.96336 1 1
507 1 12.4537 14.2471 5.36968 4.00144 1.29596 4.33273 1 1
508 1 12.4872 16.0398 3.57953 5.69775 0.51157 -0.38005 1 1
509 1 11.5914 15.1551 4.45959 -5.52001 -2.478 2.47988 1 1
510 1 11.6113 16.9351 6.2888 -6.6777 0.479275 5.626 1 1
511 1 13.359 15.1532 6.27006 0.440489 0.0892319 0.598519 1 1
512 1 13.3528 16.9161 4.46785 7.03829 0.0363046 0.796151 1 1
513 1 14.2863 14.2514 3.60304 2.37549 1.5772 -10.2921 1 1
514 1 14.2119 15.9947 5.3698 -1.35725 -0.32539 -0.106987 1 1
515 1 16.0225 14.2254 5.40125 2.69996 1.32697 1.051 1 1
516 1 16.0322 16.0154 3.65957 -1.93364 8.61 -7.46991 1 1
517 1 15.0889 15.147 4.50563 5.57199 3.78573 -6.34336 1 1
518 1 15.0999 16.9196 6.25519 9.07413 -4.33017 11.6513 1 1
519 1 16.9278 15.1277 6.28809 -7.55886 -0.725424 2.88091 1 1
520 1 16.9516 16.8774 4.47408 6.99719 0.271916 3.88702 1 1
521 1 17.8417 14.2352 3.57626 -2.46471 1.93356 1.23631 1 1
522 1 17.8478 16.0567 5.38888 -5.0849 -0.174478 1.84449 1 1
523 1 19.6143 14.3149 5.43353 2.62165 -4.76459 6.78912 1 1
524 1 19.5891 16.057 3.54993 12.3621 3.29401 4.72206 1 1
525 1 18.7339 15.1701 4.48323 -3.85422 -2.81899 2.40268 1 1
526 1 18.7315 16.9863 6.29639 -2.78678 -1.37811 0.273801 1 1
527 1 20.5252 15.1814 6.30229 -6.01691 3.4628 9.33556 1 1
528 1 20.5128 16.9239 4.45642 0.997058 10.3355 2.30276 1 1
529 1 0.00969557 17.8561 3.55358 9.56875 -0.328527 0.718785 1 1
530 1 21.3205 19.6018 5.38248 4.00277 4.34109 -5.58957 1 1
531 1 1.78415 17.8893 5.38992 2.44394 -2.81443 3.48127 1 1
532 1 1.78189 19.637 3.57457 8.03559 -3.80522 -1.14076 1 1
533 1 0.919585 18.7412 4.49466 -3.36784 2.94569 -6.89781 1 1
534 1 0.850322 20.4838 6.24035 -6.20351 -0.367457 4.62272 1 1
535 1 2.69279 18.7389 6.30919 -1.27989 1.55019 4.86938 1 1
536 1 2.64562 20.5196 4.47458 6.14249 8.4476 3.00483 1 1
537 1 3.55408 17.8413 3.61087 -6.04846 2.21013 -1.08314 1 1
538 1 3.56636 19.605 5.39949 -3.56295 8.2756 -0.187472 1 1
539 1 5.3354 17.7706 5.3704 2.83322 -2.54597 -2.6567 1 1
540 1 5.3484 19.5872 3.60149 -1.569 -1.15558 -4.80514 1 1
541 1 4.44783 18.6817 4.52517 -3.01354 1.255 -1.13267 1 1
542 1 4.44128 20.4972 6.2708 -3.60175 -2.22944 2.41227 1 1
543 1 6.27438 18.7181 6.24908 3.50455 2.12011 -2.00682 1 1
544 1 6.20307 20.5132 4.49963 1.52451 9.19326 -2.46806 1 1
545 1 7.12198 17.844 3.56383 6.43079 -3.7441 -4.22024 1 1
546 1 7.17359 19.6085 5.40907 -4.7545 1.74232 -3.37663 1 1
547 1 8.91881 17.8452 5.36708 -3.97715 2.65059 4.08674 1 1
548 1 8.9537 19.6226 3.57383 -4.38302 1.33708 7.74558 1 1
549 1 8.05148 18.7402 4.44658 -3.3026 -4.6284 6.39997 1 1
550 1 8.05598 20.5411 6.25564 -8.34828 -3.02872 6.59195 1 1
551 1 9.8196 18.6913 6.2581 -2.05722 4.65226 3.09429 1 1
552 1 9.78353 20.542 4.47674 1.92483 2.55439 4.74952 1 1
553 1 10.6911 17.8712 3.60099 -3.5292 -3.79046 3.80273 1 1
554 1 10.6747 19.6199 5.38595 -4.56016 -3.07174 -3.29622 1 1
555 1 12.4498 17.8142 5.35578 0.140664 4.41229 3.11347 1 1
556 1 12.4786 19.6346 3.58146 9.18353 -4.26217 4.95634 1 1