ITEM: TIMESTEP
250
ITEM: NUMBER OF ATOMS
2953
ITEM: BOX BOUNDS pp pp mm
0.0000000000000000e+00 2.1394294200000001e+01
0.0000000000000000e+00 2.1394294200000001e+01
-4.4571446250000002e-01 5.3485735500000004e+01
ITEM: ATOMS id type x y z vx vy vz v_is_diamond c_structure_type
1 1 0 0 0 0 0 0 1 3
2 1 0.026161 1.7998 1.77001 -9.361 4.07736 -2.6226 1 1
3 1 1.79612 0.0229838 1.80727 -2.23399 -1.87329 3.22755 1 1
4 1 1.78286 1.78286 0 0 0 0 1 3
5 1 0.891429 0.891429 0.891429 0 0 0 1 2
6 1 0.906588 2.71688 2.6357 2.30986 -4.52177 6.26423 1 1
7 1 2.64692 0.962514 2.65538 7.62349 -3.41174 -1.94333 1 1
8 1 2.67429 2.67429 0.891429 0 0 0 1 2
9 1 3.56572 0 0 0 0 0 1 3
10 1 3.57176 1.81836 1.77096 -0.135738 2.17761 2.18066 1 1
11 1 5.29582 0.0287396 1.84849 4.75477 6.85736 -2.67134 1 1
12 1 5.34857 1.78286 0 0 0 0 1 3
13 1 4.45714 0.891429 0.891429 0 0 0 1 2
14 1 4.4555 2.64983 2.74745 -3.56235 -0.769469 -11.561 1 1
15 1 6.1979 0.929252 2.67134 -2.74463 3.00165 2.48092 1 1
16 1 6.24 2.67429 0.891429 0 0 0 1 2
17 1 7.13143 0 0 0 0 0 1 3
18 1 7.08043 1.78603 1.77311 -5.52662 4.32761 5.53672 1 1
19 1 8.90451 -0.0023228 1.74267 -1.85064 -8.54463 2.72393 1 1
20 1 8.91429 1.78286 0 0 0 0 1 3
21 1 8.02286 0.891429 0.891429 0 0 0 1 2
22 1 7.96816 2.66308 2.66105 3.16523 0.683657 2.19538 1 1
23 1 9.7709 0.876443 2.64504 4.08967 0.588113 -0.286911 1 1
24 1 9.80572 2.67429 0.891429 0 0 0 1 2
25 1 10.6971 0 0 0 0 0 1 3
26 1 10.6944 1.7687 1.7673 -1.30907 3.60465 1.77209 1 1
27 1 12.4633 21.39 1.81917 4.99927 -0.680355 -4.1039 1 1
28 1 12.48 1.78286 0 0 0 0 1 3
29 1 11.5886 0.891429 0.891429 0 0 0 1 2
30 1 11.5576 2.67108 2.66113 5.30434 7.43238 1.65088 1 1
31 1 13.399 0.861715 2.73414 7.15758 3.1991 2.79011 1 1
32 1 13.3714 2.67429 0.891429 0 0 0 1 2
33 1 14.2629 0 0 0 0 0 1 3
34 1 14.226 1.76184 1.81682 0.433082 -6.45447 -4.99117 1 1
35 1 16.0439 0.00559802 1.8203 0.431405 -4.58895 1.76577 1 1
36 1 16.0457 1.78286 0 0 0 0 1 3
37 1 15.1543 0.891429 0.891429 0 0 0 1 2
38 1 15.1564 2.66244 2.69868 -4.04095 -0.370461 -1.1425 1 1
39 1 16.9316 0.885292 2.67083 0.495091 3.21523 5.75979 1 1
40 1 16.9371 2.67429 0.891429 0 0 0 1 2
41 1 17.8286 0 0 0 0 0 1 3
42 1 17.8038 1.7632 1.75205 0.487569 1.72833 1.87634 1 1
43 1 19.6214 0.0410317 1.77552 9.04555 -2.90373 13.6929 1 1
44 1 19.6114 1.78286 0 0 0 0 1 3
45 1 18.72 0.891429 0.891429 0 0 0 1 2
46 1 18.735 2.67528 2.67163 -0.892786 1.57435 1.47064 1 1
47 1 20.5129 0.941734 2.64699 -6.60188 8.53441 -1.0951 1 1
48 1 20.5029 2.67429 0.891429 0 0 0 1 2
49 1 0 3.56572 0 0 0 0 1 3
50 1 0.020652 5.367 1.77661 2.06183 -0.81982 -0.308765 1 1
51 1 1.81647 3.59462 1.78286 -7.15124 -1.40772 -1.12746 1 1
52 1 1.78286 5.34857 0 0 0 0 1 3
53 1 0.891429 4.45714 0.891429 0 0 0 1 2
54 1 0.919619 6.24364 2.70926 0.550063 -2.24225 1.29866 1 1
55 1 2.69825 4.46925 2.70841 -9.52919 3.08787 5.53895 1 1
56 1 2.67429 6.24 0.891429 0 0 0 1 2
57 1 3.56572 3.56572 0 0 0 0 1 3
58 1 3.58077 5.33939 1.78539 -0.987669 -7.53574 -0.626908 1 1
59 1 5.32564 3.57164 1.80079 0.581929 -0.686707 0.897227 1 1
60 1 5.34857 5.34857 0 0 0 0 1 3
61 1 4.45714 4.45714 0.891429 0 0 0 1 2
62 1 4.48406 6.24185 2.67738 4.12365 -2.70887 -4.35674 1 1
63 1 6.24489 4.47128 2.69682 2.92081 -0.464568 -0.192054 1 1
64 1 6.24 6.24 0.891429 0 0 0 1 2
65 1 7.13143 3.56572 0 0 0 0 1 3
66 1 7.11722 5.35792 1.76922 0.750217 -6.28209 4.10431 1 1
67 1 8.92533 3.5839 1.83138 -3.54437 -4.25795 4.95038 1 1
68 1 8.91429 5.34857 0 0 0 0 1 3
69 1 8.02286 4.45714 0.891429 0 0 0 1 2
70 1 8.02235 6.2318 2.68601 0.371073 4.93038 1.71709 1 1
71 1 9.81449 4.45631 2.69912 -0.543205 0.389364 -1.40539 1 1
72 1 9.80572 6.24 0.891429 0 0 0 1 2
73 1 10.6971 3.56572 0 0 0 0 1 3
74 1 10.7122 5.33 1.82638 6.53322 -1.38613 -0.982951 1 1
75 1 12.4715 3.55602 1.78089 6.35504 3.77872 0.533808 1 1
76 1 12.48 5.34857 0 0 0 0 1 3
77 1 11.5886 4.45714 0.891429 0 0 0 1 2
78 1 11.554 6.28182 2.71634 -3.75995 8.57327 8.14447 1 1
79 1 13.3728 4.44433 2.67384 1.74807 -3.75536 8.61097 1 1
80 1 13.3714 6.24 0.891429 0 0 0 1 2
81 1 14.2629 3.56572 0 0 0 0 1 3
82 1 14.278 5.35897 1.76645 -0.876147 4.30414 2.65846 1 1
83 1 16.0274 3.52906 1.79748 -4.34654 2.31241 4.56659 1 1
84 1 16.0457 5.34857 0 0 0 0 1 3
85 1 15.1543 4.45714 0.891429 0 0 0 1 2
86 1 15.192 6.20351 2.67895 0.346751 2.92108 -6.64562 1 1
87 1 16.9528 4.41204 2.66213 6.43989 -5.51977 3.79202 1 1
88 1 16.9371 6.24 0.891429 0 0 0 1 2
89 1 17.8286 3.56572 0 0 0 0 1 3
90 1 17.8083 5.35323 1.78062 -6.57468 -3.61307 -1.31633 1 1
91 1 19.6077 3.54944 1.76323 -2.82634 0.120719 -7.0854 1 1
92 1 19.6114 5.34857 0 0 0 0 1 3
93 1 18.72 4.45714 0.891429 0 0 0 1 2
94 1 18.7618 6.21573 2.64065 -10.3745 2.76453 7.67039 1 1
95 1 20.531 4.42031 2.7173 -3.49511 2.00786 4.46795 1 1
96 1 20.5029 6.24 0.891429 0 0 0 1 2
97 1 0 7.13143 0 0 0 0 1 3
98 1 0.0430682 8.89143 1.76586 1.54072 3.7083 4.4248 1 1
99 1 1.79471 7.10825 1.78814 -3.13585 1.09817 -0.602747 1 1
100 1 1.78286 8.91429 0 0 0 0 1 3
101 1 0.891429 8.02286 0.891429 0 0 0 1 2
102 1 0.892615 9.7956 2.67657 -1.24449 -0.0808854 9.44814 1 1
103 1 2.70247 7.98778 2.66157 3.44511 11.6661 -10.8737 1 1
104 1 2.67429 9.80572 0.891429 0 0 0 1 2
105 1 3.56572 7.13143 0 0 0 0 1 3
106 1 3.55555 8.85977 1.77202 -2.32577 1.43776 -7.40028 1 1
107 1 5.37416 7.11256 1.8205 5.34212 0.4958 -2.84302 1 1
108 1 5.34857 8.91429 0 0 0 0 1 3
109 1 4.45714 8.02286 0.891429 0 0 0 1 2
110 1 4.46137 9.77987 2.68381 -2.50754 -2.76365 -12.0658 1 1
111 1 6.27395 8.03244 2.69908 -0.0821093 -0.453454 6.02749 1 1
112 1 6.24 9.80572 0.891429 0 0 0 1 2
113 1 7.13143 7.13143 0 0 0 0 1 3
114 1 7.15057 8.87539 1.7984 -2.8658 -6.09498 -8.49864 1 1
115 1 8.9018 7.12001 1.79054 -4.32551 2.24644 5.41006 1 1
116 1 8.91429 8.91429 0 0 0 0 1 3
117 1 8.02286 8.02286 0.891429 0 0 0 1 2
118 1 8.05765 9.81507 2.69061 5.76936 -1.35825 -6.21007 1 1
119 1 9.74669 8.00399 2.66912 -0.345948 0.0677627 1.24615 1 1
120 1 9.80572 9.80572 0.891429 0 0 0 1 2
121 1 10.6971 7.13143 0 0 0 0 1 3
122 1 10.6493 8.90814 1.79773 3.72485 -2.36911 3.61613 1 1
123 1 12.4827 7.11327 1.82826 -1.76055 -4.86717 -6.36805 1 1
124 1 12.48 8.91429 0 0 0 0 1 3
125 1 11.5886 8.02286 0.891429 0 0 0 1 2
126 1 11.5695 9.81481 2.71941 5.83467 -8.52108 9.62358 1 1
127 1 13.394 7.99956 2.70195 -4.97867 4.07275 1.44812 1 1
128 1 13.3714 9.80572 0.891429 0 0 0 1 2
129 1 14.2629 7.13143 0 0 0 0 1 3
130 1 14.2841 8.89721 1.77056 -4.73386 0.555066 5.21387 1 1
131 1 16.0796 7.12486 1.77939 -4.54441 1.39934 1.69871 1 1
132 1 16.0457 8.91429 0 0 0 0 1 3
133 1 15.1543 8.02286 0.891429 0 0 0 1 2
134 1 15.1372 9.78165 2.68466 2.75194 -0.974442 7.34137 1 1
135 1 16.9761 8.02011 2.68632 -7.30904 5.87687 9.38067 1 1
136 1 16.9371 9.80572 0.891429 0 0 0 1 2
137 1 17.8286 7.13143 0 0 0 0 1 3
138 1 17.8393 8.93538 1.80225 -4.74668 -2.94162 7.15357 1 1
139 1 19.6196 7.13952 1.79336 -10.5308 1.92456 0.296388 1 1
140 1 19.6114 8.91429 0 0 0 0 1 3
141 1 18.72 8.02286 0.891429 0 0 0 1 2
142 1 18.7226 9.74914 2.69286 8.24229 0.65595 -2.66348 1 1
143 1 20.485 8.02412 2.69544 -2.32432 3.99254 -2.22306 1 1
144 1 20.5029 9.80572 0.891429 0 0 0 1 2
145 1 0 10.6971 0 0 0 0 1 3
146 1 0.00858585 12.5182 1.82749 -4.34267 2.62287 9.71381 1 1
147 1 1.77495 10.7218 1.79942 -1.33803 1.01884 -2.46374 1 1
148 1 1.78286 12.48 0 0 0 0 1 3
149 1 0.891429 11.5886 0.891429 0 0 0 1 2
150 1 0.889697 13.3916 2.72588 0.437286 3.8137 0.743677 1 1
151 1 2.64195 11.5878 2.67604 3.97541 -0.677783 -0.517968 1 1
152 1 2.67429 13.3714 0.891429 0 0 0 1 2
153 1 3.56572 10.6971 0 0 0 0 1 3
154 1 3.5269 12.5231 1.7909 1.10627 -5.72652 10.8251 1 1
155 1 5.34634 10.6656 1.78707 -10.0418 2.53913 -0.887908 1 1
156 1 5.34857 12.48 0 0 0 0 1 3
157 1 4.45714 11.5886 0.891429 0 0 0 1 2
158 1 4.4611 13.4411 2.69291 -0.132355 10.8039 3.17136 1 1
159 1 6.23473 11.5824 2.57877 8.32174 11.1476 4.86371 1 1
160 1 6.24 13.3714 0.891429 0 0 0 1 2
161 1 7.13143 10.6971 0 0 0 0 1 3
162 1 7.09901 12.4641 1.73713 0.387933 -7.02736 -6.32816 1 1
163 1 8.9489 10.6957 1.78691 -2.48319 -0.437204 1.28066 1 1
164 1 8.91429 12.48 0 0 0 0 1 3
165 1 8.02286 11.5886 0.891429 0 0 0 1 2
166 1 8.00667 13.3521 2.66683 4.706 4.4073 -2.29778 1 1
167 1 9.82783 11.555 2.65801 -2.90979 0.513684 2.67633 1 1
168 1 9.80572 13.3714 0.891429 0 0 0 1 2
169 1 10.6971 10.6971 0 0 0 0 1 3
170 1 10.6575 12.4823 1.72957 7.81365 -0.68474 -8.98654 1 1
171 1 12.4498 10.6808 1.78399 -0.771696 5.4463 -1.84525 1 1
172 1 12.48 12.48 0 0 0 0 1 3
173 1 11.5886 11.5886 0.891429 0 0 0 1 2
174 1 11.62 13.3707 2.63062 -2.99115 -1.40988 3.3166 1 1
175 1 13.3791 11.5535 2.66527 -2.4549 -0.171642 -1.40271 1 1
176 1 13.3714 13.3714 0.891429 0 0 0 1 2
177 1 14.2629 10.6971 0 0 0 0 1 3
178 1 14.2786 12.4485 1.76927 -2.6441 8.07687 0.838673 1 1
179 1 16.0616 10.6828 1.77814 8.35845 -0.182547 -2.12719 1 1
180 1 16.0457 12.48 0 0 0 0 1 3
181 1 15.1543 11.5886 0.891429 0 0 0 1 2
182 1 15.1677 13.3655 2.66093 -1.75611 -3.68846 -7.16703 1 1
183 1 16.9966 11.5982 2.69277 0.206852 -5.34989 3.21394 1 1
184 1 16.9371 13.3714 0.891429 0 0 0 1 2
185 1 17.8286 10.6971 0 0 0 0 1 3
186 1 17.8133 12.4815 1.78606 2.37273 1.32001 1.09575 1 1
187 1 19.6502 10.7092 1.78559 -0.243967 0.239586 -1.27269 1 1
188 1 19.6114 12.48 0 0 0 0 1 3
189 1 18.72 11.5886 0.891429 0 0 0 1 2
190 1 18.728 13.3695 2.67045 -2.94787 -3.47258 10.2658 1 1
191 1 20.488 11.6456 2.69834 2.24345 -0.958415 1.82867 1 1
192 1 20.5029 13.3714 0.891429 0 0 0 1 2
193 1 0 14.2629 0 0 0 0 1 3
194 1 0.00850956 16.059 1.74381 -2.87773 8.66257 -7.14541 1 1
195 1 1.81351 14.2508 1.78998 -1.38146 -1.61482 3.5885 1 1
196 1 1.78286 16.0457 0 0 0 0 1 3
197 1 0.891429 15.1543 0.891429 0 0 0 1 2
198 1 0.855743 16.9335 2.64454 9.52679 4.70157 -6.41272 1 1
199 1 2.67581 15.1668 2.66182 -2.9234 1.92454 2.70128 1 1
200 1 2.67429 16.9371 0.891429 0 0 0 1 2
201 1 3.56572 14.2629 0 0 0 0 1 3
202 1 3.62227 16.067 1.78665 3.55244 -12.1711 2.90279 1 1
203 1 5.40398 14.2566 1.80316 6.46214 4.12985 0.442757 1 1
204 1 5.34857 16.0457 0 0 0 0 1 3
205 1 4.45714 15.1543 0.891429 0 0 0 1 2
206 1 4.48363 16.9704 2.69673 -1.93712 -0.796602 -4.18558 1 1
207 1 6.26368 15.1574 2.65461 -1.6747 -6.46703 -0.843931 1 1
208 1 6.24 16.9371 0.891429 0 0 0 1 2
209 1 7.13143 14.2629 0 0 0 0 1 3
210 1 7.14494 16.0572 1.74325 0.0116459 1.12281 -4.17149 1 1
211 1 8.8977 14.2643 1.76862 5.67173 -2.73736 2.12342 1 1
212 1 8.91429 16.0457 0 0 0 0 1 3
213 1 8.02286 15.1543 0.891429 0 0 0 1 2
214 1 8.03746 16.9744 2.65856 0.0741584 0.560692 -12.4778 1 1
215 1 9.78037 15.1483 2.67585 1.87872 -0.141108 -6.7133 1 1
216 1 9.80572 16.9371 0.891429 0 0 0 1 2
217 1 10.6971 14.2629 0 0 0 0 1 3
218 1 10.7035 16.0569 1.79982 -2.3678 1.31777 6.81383 1 1
219 1 12.4984 14.2765 1.72928 -4.03151 3.65743 9.51274 1 1
220 1 12.48 16.0457 0 0 0 0 1 3
221 1 11.5886 15.1543 0.891429 0 0 0 1 2
222 1 11.6018 16.9995 2.66518 1.40314 -0.588963 -2.96182 1 1
223 1 13.3842 15.1172 2.63003 1.1963 2.32643 8.279 1 1
224 1 13.3714 16.9371 0.891429 0 0 0 1 2
225 1 14.2629 14.2629 0 0 0 0 1 3
226 1 14.252 16.0468 1.76175 -1.82744 7.69191 -2.04706 1 1
227 1 16.0415 14.229 1.76833 -2.46919 -6.01382 7.38456 1 1
228 1 16.0457 16.0457 0 0 0 0 1 3
229 1 15.1543 15.1543 0.891429 0 0 0 1 2
230 1 15.1562 16.9237 2.69609 1.39487 -5.94721 4.0139 1 1
231 1 16.9346 15.1987 2.69774 1.93613 9.0456 -0.786948 1 1
232 1 16.9371 16.9371 0.891429 0 0 0 1 2
233 1 17.8286 14.2629 0 0 0 0 1 3
234 1 17.8077 16.0797 1.77735 -6.14349 -1.98798 -1.7405 1 1
235 1 19.6194 14.3137 1.75663 2.4612 3.88105 5.68386 1 1
236 1 19.6114 16.0457 0 0 0 0 1 3
237 1 18.72 15.1543 0.891429 0 0 0 1 2
238 1 18.7053 16.959 2.65607 5.80979 -2.08784 -3.23926 1 1
239 1 20.558 15.1613 2.66634 -2.87138 -0.320112 -2.26518 1 1
240 1 20.5029 16.9371 0.891429 0 0 0 1 2
241 1 0 17.8286 0 0 0 0 1 3
242 1 0.0341811 19.6073 1.76629 2.18386 7.59481 -6.18675 1 1
243 1 1.77516 17.8458 1.79262 2.14385 -6.32446 9.02862 1 1
244 1 1.78286 19.6114 0 0 0 0 1 3
245 1 0.891429 18.72 0.891429 0 0 0 1 2
246 1 0.872539 20.5457 2.71384 1.88621 2.08589 2.69485 1 1
247 1 2.67864 18.7617 2.68679 1.39155 1.28172 0.966676 1 1
248 1 2.67429 20.5029 0.891429 0 0 0 1 2
249 1 3.56572 17.8286 0 0 0 0 1 3
250 1 3.545 19.614 1.7373 -0.111491 0.215779 -7.32841 1 1
251 1 5.35602 17.8516 1.79309 1.16049 4.48449 1.3834 1 1
252 1 5.34857 19.6114 0 0 0 0 1 3
253 1 4.45714 18.72 0.891429 0 0 0 1 2
254 1 4.44734 20.5206 2.6904 -11.2087 5.01467 0.0575909 1 1
255 1 6.2666 18.717 2.66075 0.967509 -7.08117 0.49306 1 1
256 1 6.24 20.5029 0.891429 0 0 0 1 2
257 1 7.13143 17.8286 0 0 0 0 1 3
258 1 7.11169 19.5961 1.78428 1.3226 -5.32623 1.16666 1 1
259 1 8.89044 17.8689 1.82338 -4.82381 -1.10633 -2.7205 1 1
260 1 8.91429 19.6114 0 0 0 0 1 3
261 1 8.02286 18.72 0.891429 0 0 0 1 2
262 1 8.07305 20.5022 2.66849 -6.93361 0.673527 7.47154 1 1
263 1 9.80815 18.7485 2.71197 1.08876 0.0985906 -9.18628 1 1
264 1 9.80572 20.5029 0.891429 0 0 0 1 2
265 1 10.6971 17.8286 0 0 0 0 1 3
266 1 10.6966 19.6497 1.80131 9.44143 -7.84844 -0.292235 1 1
267 1 12.47 17.8974 1.77714 8.29431 0.888319 0.936752 1 1
268 1 12.48 19.6114 0 0 0 0 1 3
269 1 11.5886 18.72 0.891429 0 0 0 1 2
270 1 11.5785 20.5157 2.71259 -1.15288 -0.168101 6.2878 1 1
271 1 13.378 18.7519 2.68299 -2.81295 -2.69053 2.44193 1 1
272 1 13.3714 20.5029 0.891429 0 0 0 1 2
273 1 14.2629 17.8286 0 0 0 0 1 3
274 1 14.2621 19.5941 1.7877 1.213 -4.91614 4.05817 1 1
275 1 16.0709 17.8176 1.78285 -0.847852 -2.00083 3.98278 1 1
276 1 16.0457 19.6114 0 0 0 0 1 3
277 1 15.1543 18.72 0.891429 0 0 0 1 2
278 1 15.1827 20.5206 2.67712 5.55901 -0.30219 3.38822 1 1
279 1 16.9865 18.6958 2.67258 4.7454 -0.264382 4.599 1 1
280 1 16.9371 20.5029 0.891429 0 0 0 1 2
281 1 17.8286 17.8286 0 0 0 0 1 3
282 1 17.8397 19.6092 1.78864 -1.10214 0.816277 0.16114 1 1
283 1 19.6116 17.8461 1.76229 -1.2263 9.67879 -3.09031 1 1
284 1 19.6114 19.6114 0 0 0 0 1 3
285 1 18.72 18.72 0.891429 0 0 0 1 2
286 1 18.7133 20.5358 2.66525 -2.00951 6.29247 1.4515 1 1
287 1 20.528 18.7501 2.66843 1.43802 -4.48418 0.755505 1 1
288 1 20.5029 20.5029 0.891429 0 0 0 1 2
289 1 0.0226499 0.0511312 3.56726 9.41383 -6.41501 9.44724 1 1
290 1 21.3652 1.80251 5.36633 -1.25817 -0.753616 0.795595 1 1
291 1 1.73092 0.0530962 5.38509 5.66849 -5.93106 0.338383 1 1
292 1 1.79722 1.77077 3.59998 -0.710597 -2.18618 -0.603053 1 1
293 1 0.908682 0.919167 4.47992 1.37663 7.7298 4.89397 1 1
294 1 0.889304 2.66778 6.33275 1.0272 -0.0172127 -0.971339 1 1
295 1 2.67397 0.850043 6.28371 -8.79522 3.15465 2.20728 1 1
296 1 2.70473 2.69443 4.50356 4.01221 0.0383908 0.761365 1 1
297 1 3.54154 0.0381264 3.57671 -10.246 0.229455 -6.73481 1 1
298 1 3.51978 1.75835 5.4222 2.56435 1.54446 4.08963 1 1
299 1 5.31914 21.3564 5.4131 -12.034 -3.96873 -3.20729 1 1
300 1 5.30651 1.80676 3.60406 2.96903 5.15204 1.13386 1 1
301 1 4.4446 0.848896 4.43797 5.77367 0.0181344 2.28898 1 1
302 1 4.41677 2.69851 6.28608 -7.82566 -5.84436 6.60831 1 1
303 1 6.20594 0.87864 6.27854 4.60479 -1.57159 1.46792 1 1
304 1 6.23826 2.6509 4.48496 6.54757 -6.09323 5.38013 1 1
305 1 7.11085 0.00438116 3.58596 0.922438 -1.70872 2.12171 1 1
306 1 7.13656 1.78129 5.38422 -4.0646 2.00401 5.6676 1 1
307 1 8.89316 0.023825 5.39781 -5.58671 2.4804 4.42222 1 1
308 1 8.87258 1.74054 3.53877 7.72158 2.92972 5.28396 1 1
309 1 7.96862 0.889696 4.4277 0.896447 -1.64713 -2.7902 1 1
310 1 8.04 2.66619 6.27845 8.36617 -0.559145 1.59646 1 1
311 1 9.7869 0.864131 6.31293 -1.14903 -8.1232 4.04072 1 1
312 1 9.80675 2.67053 4.43324 2.021 2.03881 2.689 1 1
313 1 10.6549 0.0218502 3.56676 -0.869282 2.15805 1.04605 1 1
314 1 10.6349 1.79599 5.35379 -3.62242 3.34321 -3.15802 1 1
315 1 12.4645 21.366 5.32092 -7.23022 -2.24219 4.24763 1 1
316 1 12.4663 1.7709 3.57635 -5.44644 1.12139 -4.3541 1 1
317 1 11.5344 0.867488 4.44815 -3.52571 -0.0405866 -1.87228 1 1
318 1 11.5555 2.66274 6.30013 7.62662 1.18182 5.20488 1 1
319 1 13.334 0.893153 6.24282 0.326794 3.85232 4.86935 1 1
320 1 13.3485 2.64145 4.48363 8.76354 -0.293428 -5.60132 1 1
321 1 14.2534 0.00936354 3.58156 -2.77223 0.390439 -7.02256 1 1
322 1 14.2422 1.76342 5.39533 7.87216 -2.57634 0.302659 1 1
323 1 16.0349 21.3575 5.34055 -3.34661 4.03703 -3.06732 1 1
324 1 16.0799 1.74062 3.55848 3.6001 4.67065 -3.3971 1 1
325 1 15.1692 0.882662 4.47153 4.68228 8.03962 -2.33367 1 1
326 1 15.1528 2.6726 6.27604 -2.6075 1.72679 -1.88982 1 1
327 1 16.8913 0.852607 6.24621 2.2433 0.290494 4.09148 1 1
328 1 16.9531 2.62798 4.47658 -9.82611 8.05977 -0.313677 1 1
329 1 17.8523 21.3778 3.56018 1.74399 0.953521 -5.24061 1 1
330 1 17.8302 1.75333 5.40586 6.45767 -6.86598 -2.01124 1 1
331 1 19.6051 21.3689 5.40472 -0.735509 3.56422 -5.77217 1 1
332 1 19.6061 1.79014 3.58949 -0.624308 -0.60047 -4.59935 1 1
333 1 18.7535 0.886743 4.46232 -1.00349 5.47293 10.4547 1 1
334 1 18.662 2.63552 6.27231 2.7729 6.43284 0.559547 1 1
335 1 20.506 0.893133 6.266 -3.04661 -0.0937713 -1.79033 1 1
336 1 20.4944 2.64933 4.44183 -2.8931 -0.756858 7.47287 1 1
337 1 21.3877 3.55142 3.58053 5.99019 2.59097 4.62303 1 1
338 1 0.0427562 5.32575 5.39467 5.89735 6.58103 -1.01619 1 1
339 1 1.77068 3.55679 5.39616 2.06 -0.265124 -2.50039 1 1
340 1 1.81256 5.3788 3.60068 -3.7343 -4.11509 -3.39331 1 1
341 1 0.894953 4.42034 4.48856 4.26805 -3.72517 -2.3406 1 1
342 1 0.920659 6.25406 6.22437 -1.14793 -5.60117 2.66557 1 1
343 1 2.69434 4.46448 6.28508 -2.26958 -2.70276 0.978148 1 1
344 1 2.70485 6.27355 4.46511 6.89615 9.14866 -0.214723 1 1
345 1 3.57394 3.58208 3.68659 3.503 -2.98703 -6.1405 1 1
346 1 3.61736 5.38654 5.40607 9.77868 -0.186656 4.09314 1 1
347 1 5.35632 3.5417 5.39907 -5.58276 2.66745 -0.459788 1 1
348 1 5.33358 5.32933 3.5892 2.45145 -1.78906 -3.18677 1 1
349 1 4.48766 4.4584 4.54395 1.51045 1.94056 1.03157 1 1
350 1 4.47967 6.24915 6.30348 -1.85296 7.14639 0.709036 1 1
351 1 6.27889 4.47162 6.28489 -0.724064 5.94729 -4.35069 1 1
352 1 6.26964 6.21484 4.48039 1.35421 -6.82352 2.28112 1 1
353 1 7.10151 3.57398 3.60021 0.998839 3.28861 3.68299 1 1
354 1 7.1119 5.34554 5.37019 4.89512 5.51014 -1.62038 1 1
355 1 8.93271 3.54878 5.36933 -0.166922 3.52344 4.42672 1 1
356 1 8.89901 5.35987 3.54924 -10.2053 2.29482 11.2135 1 1
357 1 8.07358 4.46269 4.45766 -0.10315 5.65151 3.90365 1 1
358 1 8.0376 6.21417 6.28197 3.1183 1.48799 6.86092 1 1
359 1 9.78586 4.46121 6.29595 3.87605 -2.29346 10.3182 1 1
360 1 9.79063 6.23326 4.48719 1.45677 0.265415 -0.936419 1 1
361 1 10.7203 3.57017 3.5926 12.1849 -1.79252 0.62053 1 1
362 1 10.6289 5.35024 5.3657 4.57508 5.85743 2.17302 1 1
363 1 12.4541 3.54517 5.4163 -3.85026 -3.66212 3.16356 1 1
364 1 12.4512 5.32976 3.55743 -1.32645 15.4134 -0.400764 1 1
365 1 11.5666 4.43288 4.52243 -1.31389 -1.96804 -0.32934 1 1
366 1 11.5609 6.2023 6.26974 -7.9376 -0.103192 -1.65798 1 1
367 1 13.3702 4.4577 6.27711 3.5137 1.15196 2.35243 1 1
368 1 13.3619 6.27188 4.48558 2.1299 1.25227 8.34571 1 1
369 1 14.2126 3.55915 3.59836 -8.94161 -0.924952 -2.15293 1 1
370 1 14.2697 5.36691 5.40229 -7.9891 -3.02414 -3.93251 1 1
371 1 16.0503 3.55984 5.42466 3.08732 4.80954 3.59345 1 1
372 1 16.0177 5.31417 3.59408 -8.71633 1.2006 0.428364 1 1
373 1 15.1785 4.42836 4.51067 -2.88126 -6.09607 2.33293 1 1
374 1 15.1434 6.27566 6.33653 2.93322 0.565784 4.24773 1 1
375 1 16.9463 4.45541 6.30927 -3.74986 4.35659 4.07237 1 1
376 1 16.9252 6.17999 4.4654 2.97488 2.21702 4.22002 1 1
377 1 17.8396 3.54435 3.60882 -3.23261 1.05596 -11.6579 1 1
378 1 17.8239 5.3689 5.34832 -2.96989 2.1547 2.47539 1 1
379 1 19.6014 3.5314 5.33561 -4.44031 -7.77077 -2.18267 1 1
380 1 19.6882 5.33308 3.56554 0.958778 5.44507 4.48807 1 1
381 1 18.7323 4.46007 4.48491 4.16217 0.827829 -5.23837 1 1
382 1 18.7107 6.22644 6.22016 0.338532 -4.12547 0.563018 1 1
383 1 20.5044 4.41475 6.3204 2.16877 -3.59639 4.9412 1 1
384 1 20.5148 6.20679 4.46283 8.17491 0.927364 1.3146 1 1
385 1 0.0280384 7.1275 3.57897 6.47645 6.54398 10.0142 1 1
386 1 21.3481 8.93429 5.37691 0.753967 -0.700173 4.97445 1 1
387 1 1.79406 7.12567 5.35391 0.134345 -3.80546 -1.10396 1 1
388 1 1.79002 8.90337 3.56313 8.66789 3.06698 7.0929 1 1
389 1 0.878805 8.02859 4.47527 5.89499 5.98772 0.173438 1 1
390 1 0.884875 9.80359 6.28384 -1.94347 -7.31393 -3.28522 1 1
391 1 2.70211 8.00834 6.27321 6.88284 1.81413 1.05171 1 1
392 1 2.65383 9.81445 4.46845 -3.83133 -5.31308 1.33081 1 1
393 1 3.56919 7.13326 3.55505 6.50141 8.09083 11.0874 1 1
394 1 3.57891 8.92722 5.3865 -2.82915 7.32484 2.93916 1 1
395 1 5.32529 7.14549 5.36191 4.08614 3.18345 0.640308 1 1
396 1 5.3484 8.91742 3.57591 2.60077 -1.48188 -3.50179 1 1
397 1 4.47978 8.03249 4.44357 3.5161 -5.31284 -0.274697 1 1
398 1 4.48501 9.76771 6.26173 9.74427 -0.943642 -2.30229 1 1
399 1 6.23681 8.02203 6.25202 2.94519 1.08532 1.23909 1 1
400 1 6.2343 9.76262 4.44507 10.6612 6.78545 -2.06995 1 1
401 1 7.1477 7.09618 3.61052 3.04142 -3.60345 -6.35929 1 1
402 1 7.1692 8.89232 5.36331 -8.28905 -0.985901 2.47372 1 1
403 1 8.88545 7.1264 5.37058 -4.67374 -0.583953 -11.6326 1 1
404 1 8.91542 8.92241 3.56937 -0.385037 2.36534 5.41788 1 1
405 1 8.03267 8.03116 4.47966 -0.290603 3.10928 2.7926 1 1
406 1 8.03106 9.79669 6.23806 4.26693 6.82281 5.7179 1 1
407 1 9.79067 8.01003 6.29346 -0.226687 -2.91188 -7.88576 1 1
408 1 9.8234 9.81531 4.46841 0.73501 -1.1535 7.54438 1 1
409 1 10.6145 7.1599 3.57893 9.28072 3.10412 4.13985 1 1
410 1 10.7067 8.89218 5.35825 1.7564 -4.80957 2.90496 1 1
411 1 12.4858 7.14048 5.36568 -3.39565 1.57217 2.58073 1 1
412 1 12.4816 8.90016 3.57244 1.59522 9.85459 -3.45117 1 1
413 1 11.5499 8.01627 4.4508 1.73121 1.64528 -1.08866 1 1
414 1 11.5618 9.78901 6.27636 -0.707748 3.66882 -2.16616 1 1
415 1 13.3777 7.98074 6.2756 -2.12549 -0.116339 6.37525 1 1
416 1 13.3468 9.75392 4.48163 -3.68328 -0.143459 -1.14179 1 1
417 1 14.2655 7.13105 3.59652 -2.06686 -4.81174 4.06895 1 1
418 1 14.2633 8.91219 5.34648 -0.969189 -0.705092 5.63295 1 1
419 1 16.0239 7.15506 5.42187 -4.37163 -6.66432 0.497982 1 1
420 1 16.0138 8.92856 3.62475 -0.324832 -3.5761 2.87668 1 1
421 1 15.1768 8.01921 4.50483 -0.383183 -3.52592 -1.61822 1 1
422 1 15.1755 9.80791 6.26293 -2.99428 4.06665 3.16838 1 1
423 1 16.9423 8.03974 6.29042 2.68153 -3.50277 -6.50115 1 1
424 1 16.964 9.80349 4.5088 6.35463 -0.610533 2.01167 1 1
425 1 17.8486 7.04025 3.57277 1.65968 -7.50385 -1.71636 1 1
426 1 17.8258 8.89432 5.39143 -0.457783 7.50882 -10.9027 1 1
427 1 19.6225 7.16217 5.38045 7.70596 6.78791 5.59038 1 1
428 1 19.5776 8.93466 3.54241 -1.05444 -0.343764 0.541462 1 1
429 1 18.7007 8.01455 4.48554 -0.689245 -7.65444 4.59948 1 1
430 1 18.695 9.83061 6.28635 0.210537 -4.36341 -2.91408 1 1
431 1 20.4951 8.03344 6.29216 -0.710335 -1.90686 0.609156 1 1
432 1 20.4757 9.81924 4.46566 2.80397 0.526607 1.7009 1 1
433 1 0.00249137 10.725 3.57373 0.973791 -1.4316 -5.18698 1 1
434 1 21.3871 12.4417 5.37114 -1.11285 3.59232 -4.53388 1 1
435 1 1.77296 10.7092 5.36387 8.04888 0.565545 -8.68084 1 1
436 1 1.7829 12.5113 3.60356 -3.88927 -2.51165 -1.26123 1 1
437 1 0.88834 11.6045 4.49369 -0.837215 -6.7187 -4.18898 1 1
438 1 0.883264 13.3448 6.28878 -2.56956 11.5264 1.5963 1 1
439 1 2.72113 11.5449 6.2488 -7.64257 -3.58891 -9.1007 1 1
440 1 2.68178 13.356 4.45713 7.0809 -13.1164 -2.20789 1 1
441 1 3.55444 10.6761 3.56253 3.15215 4.09442 8.22132 1 1
442 1 3.63287 12.4751 5.34391 7.86944 -2.57597 2.91479 1 1
443 1 5.3689 10.6582 5.38742 -1.56466 5.29785 -3.89986 1 1
444 1 5.36071 12.4599 3.5667 -1.96111 -3.42642 0.978599 1 1
445 1 4.4561 11.5721 4.43778 3.83137 0.30988 1.74773 1 1
446 1 4.45871 13.3444 6.25007 0.540033 8.45718 -0.647792 1 1
447 1 6.30059 11.5543 6.29358 4.70495 0.945661 -4.47937 1 1
448 1 6.24284 13.3659 4.45766 -1.73432 -4.10762 2.59964 1 1
449 1 7.13428 10.6624 3.55347 -3.75191 9.04608 7.84724 1 1
450 1 7.12242 12.496 5.34507 -2.71037 8.48567 2.27606 1 1
451 1 8.89788 10.6926 5.35538 1.21464 -5.74809 0.00697887 1 1
452 1 8.91942 12.4634 3.52538 -0.499044 -2.94845 1.21842 1 1
453 1 8.02329 11.5985 4.47638 -1.2904 -2.70241 4.07102 1 1
454 1 8.03889 13.3687 6.26138 -5.23711 1.32746 -2.70012 1 1
455 1 9.77871 11.6095 6.26425 2.5393 0.402315 5.38672 1 1
456 1 9.82034 13.3405 4.42086 3.64852 -2.08344 7.38536 1 1
457 1 10.7095 10.7265 3.57597 -2.52294 5.42838 5.38541 1 1
458 1 10.6874 12.4672 5.36832 1.77404 -3.29068 0.0989412 1 1
459 1 12.5012 10.6742 5.39199 -3.37705 1.7662 3.59701 1 1
460 1 12.4904 12.4136 3.55785 -2.80175 -3.72825 -0.534818 1 1
461 1 11.5872 11.5679 4.50331 1.57709 8.55939 -3.66004 1 1
462 1 11.5452 13.3817 6.25326 7.07456 3.25574 -2.03245 1 1
463 1 13.351 11.6222 6.29768 -1.89448 0.483495 0.0292131 1 1
464 1 13.3788 13.3251 4.48268 6.62296 -0.587839 9.00121 1 1
465 1 14.2362 10.6544 3.55032 9.90482 -1.22786 -4.4252 1 1
466 1 14.304 12.4776 5.39474 5.19349 -3.48765 4.0408 1 1
467 1 16.0935 10.6731 5.36789 -2.9493 0.976093 4.46633 1 1
468 1 16.0815 12.4958 3.56162 3.33702 4.88984 -6.10983 1 1
469 1 15.1852 11.5805 4.45158 5.94476 -0.0990879 0.915902 1 1
470 1 15.1303 13.358 6.30881 9.63871 -2.10119 -3.34149 1 1
471 1 16.9463 11.5755 6.26937 3.31869 -2.93249 3.92918 1 1
472 1 16.9074 13.3814 4.53916 -9.96809 -1.04273 0.212398 1 1
473 1 17.8444 10.6842 3.55582 -3.8546 4.70011 -0.29707 1 1
474 1 17.8316 12.4926 5.43323 9.29885 4.57372 -2.31246 1 1
475 1 19.5847 10.7433 5.35949 -0.635582 1.93452 -5.57335 1 1
476 1 19.5564 12.4771 3.55879 0.89885 1.35391 4.87585 1 1
477 1 18.6891 11.6424 4.48132 -1.84263 2.66349 7.8144 1 1
478 1 18.7141 13.401 6.29844 4.82203 -6.2928 3.50436 1 1
479 1 20.4778 11.6071 6.28502 -4.5854 -9.77832 -4.36267 1 1
480 1 20.4409 13.3646 4.4746 -3.39295 -1.6031 2.56543 1 1
481 1 21.3763 14.2803 3.58017 4.83566 2.37637 -0.23819 1 1
482 1 0.017512 16.0149 5.40048 -0.766635 -3.35616 6.69705 1 1
483 1 1.82961 14.223 5.38158 -0.969948 -0.0971105 2.97194 1 1
484 1 1.79222 16.0174 3.58539 8.64407 10.0099 -2.40346 1 1
485 1 0.8742 15.1097 4.5205 -2.4376 -1.60968 6.92832 1 1
486 1 0.932668 16.9258 6.27959 -0.739258 5.74297 5.23863 1 1
487 1 2.69591 15.1509 6.27466 8.26642 1.38325 6.22204 1 1
488 1 2.64777 16.9533 4.48199 -5.51843 -0.468822 0.916688 1 1
489 1 3.55741 14.2701 3.55071 -0.711534 3.31186 -3.06036 1 1
490 1 3.56053 16.045 5.37622 8.3502 4.06658 -1.67735 1 1
491 1 5.33603 14.2597 5.36789 2.99259 8.66608 3.92392 1 1
492 1 5.38419 16.0034 3.52733 -8.6461 3.03216 -8.40611 1 1
493 1 4.47257 15.1453 4.46501 -4.22557 4.71659 1.32002 1 1
494 1 4.44805 16.8998 6.24399 0.590311 -0.512008 1.9983 1 1
495 1 6.22691 15.1089 6.2254 -1.80117 3.95092 -2.71545 1 1
496 1 6.26718 16.8985 4.46303 3.80633 10.1322 0.0193022 1 1
497 1 7.16861 14.262 3.58451 1.70285 3.60196 -4.69572 1 1
498 1 7.13581 16.0181 5.36029 0.283043 6.80783 1.90673 1 1
499 1 8.96483 14.2555 5.36035 -1.26123 -4.56543 0.477381 1 1
500 1 8.92466 16.0347 3.58588 0.456338 -3.49279 -1.86076 1 1
501 1 8.04285 15.1285 4.44064 2.50693 6.66125 -3.022 1 1
502 1 8.05238 16.9226 6.25149 -2.16803 -6.0041 -1.15882 1 1
503 1 9.77033 15.177 6.2637 -4.6989 -6.29338 -0.235809 1 1
504 1 9.81946 16.999 4.44688 -7.6404 -0.804508 -1.06896 1 1
505 1 10.7472 14.2709 3.53238 4.72019 0.163394 2.1645 1 1
506 1 10.7216 16.0464 5.38316 -6.33974 -3.07964 -6.9581 1 1
507 1 12.4695 14.2508 5.38327 3.88498 0.595434 2.38621 1 1
508 1 12.5049 16.0418 3.56931 3.18717 0.565029 -4.41776 1 1
509 1 11.5743 15.1454 4.46961 -2.31744 -2.14293 2.41569 1 1
510 1 11.5826 16.9387 6.30131 -7.4254 1.03144 0.212439 1 1
511 1 13.3562 15.146 6.27395 -1.39284 -3.42831 1.43518 1 1
512 1 13.3781 16.9197 4.47172 5.33158 2.16211 1.36704 1 1
513 1 14.2833 14.2535 3.55437 -3.37519 -0.642685 -13.6505 1 1
514 1 14.215 16.0074 5.37089 3.65247 6.27383 0.693104 1 1
515 1 16.0307 14.2407 5.40626 1.03727 6.23032 1.43814 1 1
516 1 16.0245 16.0494 3.61455 -1.48346 8.57649 -14.4106 1 1
517 1 15.1242 15.1537 4.48232 11.7175 -0.17702 -5.63353 1 1
518 1 15.1386 16.9055 6.28998 9.68384 -2.41251 5.40638 1 1
519 1 16.9018 15.1325 6.30077 -5.34282 3.46105 3.56623 1 1
520 1 16.9721 16.8977 4.49229 2.9774 9.62923 4.80137 1 1
521 1 17.8313 14.2522 3.58526 -2.99632 6.66937 3.39849 1 1
522 1 17.8278 16.0498 5.39769 -4.8732 -3.35209 2.62527 1 1
523 1 19.619 14.2893 5.44686 -0.513173 -7.87253 0.00297104 1 1
524 1 19.6408 16.0678 3.57034 13.2144 2.17927 5.30751 1 1
525 1 18.7209 15.1588 4.49262 -2.33239 -2.77165 2.64561 1 1
526 1 18.7216 16.9744 6.2912 -2.42827 -4.4574 -2.57361 1 1
527 1 20.5017 15.1917 6.33424 -5.70777 1.052 6.52729 1 1
528 1 20.5172 16.9657 4.46758 1.80346 10.2502 3.52986 1 1
529 1 0.0403103 17.8499 3.56269 5.58774 -2.56721 3.41704 1 1
530 1 21.3537 19.6205 5.35452 12.0959 4.866 -7.86454 1 1
531 1 1.79484 17.8657 5.39999 2.34734 -8.59997 1.4307 1 1
532 1 1.80782 19.6272 3.57519 4.90397 -0.521925 1.58732 1 1
533 1 0.898627 18.7521 4.46518 -6.16404 2.23906 -7.47731 1 1
534 1 0.831453 20.4894 6.26953 -2.57053 3.09089 9.43711 1 1
535 1 2.68605 18.7364 6.32218 -1.98039 -2.81023 1.03244 1 1
536 1 2.67218 20.5507 4.48824 6.59584 7.04543 3.67734 1 1
537 1 3.53599 17.8469 3.60023 -2.96373 0.678847 -4.20151 1 1
538 1 3.55113 19.6376 5.39784 -3.90215 7.70869 -0.417807 1 1
539 1 5.352 17.7684 5.36035 5.22942 1.83113 -2.29343 1 1
540 1 5.3414 19.5881 3.58347 -1.83904 1.78336 -4.37241 1 1
541 1 4.43833 18.6947 4.51134 -1.79069 5.32149 -5.69552 1 1
542 1 4.42909 20.49 6.28815 -2.46411 -1.38168 5.98372 1 1
543 1 6.27581 18.7203 6.25209 -2.83777 -0.764962 3.24711 1 1
544 1 6.22153 20.5374 4.48866 7.02798 2.51906 -3.08901 1 1
545 1 7.15005 17.8277 3.55417 7.46584 -4.38575 -0.716289 1 1
546 1 7.14813 19.6218 5.38328 -8.18339 4.69438 -9.06281 1 1
547 1 8.90876 17.8498 5.37929 -1.15656 -0.340364 2.1018 1 1
548 1 8.92736 19.6324 3.6053 -8.23319 3.20341 7.81822 1 1
549 1 8.03315 18.7236 4.47787 -5.88073 -3.41177 9.03631 1 1
550 1 8.01887 20.5216 6.28683 -10.1283 -6.55231 8.355 1 1
551 1 9.80514 18.7201 6.27286 -5.10575 9.34475 3.82752 1 1
552 1 9.79346 20.5422 4.49455 2.475 -2.20047 4.23789 1 1
553 1 10.6858 17.8556 3.6073 0.872943 -3.61193 -1.17378 1 1
554 1 10.6633 19.6074 5.36677 -0.963766 -2.89147 -5.73929 1 1
555 1 12.4585 17.832 5.3728 3.78057 4.36306 5.36759 1 1
556 1 12.5126 19.6144 3.60106 7.16348 -5.95914 4.55255 1 1
557 1 11.5771 18.7223 4.50053 -4.78585 3.1175 -2.80304 1 1