ITEM: TIMESTEP
1400
ITEM: NUMBER OF ATOMS
2952
ITEM: BOX BOUNDS pp pp mm
0.0000000000000000e+00 2.1394294200000001e+01
0.0000000000000000e+00 2.1394294200000001e+01
-4.4571446250000002e-01 5.3485735500000004e+01
ITEM: ATOMS id type x y z vx vy vz v_is_diamond c_structure_type
1 1 0 0 0 0 0 0 1 3
2 1 1.78286 1.78286 0 0 0 0 1 3
3 1 0.891429 0.891429 0.891429 0 0 0 1 2
4 1 0.894328 2.64462 2.67734 3.28584 -7.16346 0.255795 1 1
5 1 2.69203 0.886428 2.65117 3.37128 -8.39717 2.45114 1 1
6 1 2.67429 2.67429 0.891429 0 0 0 1 2
7 1 21.3844 1.81439 1.7892 0.738155 6.12335 2.70729 1 1
8 1 1.76448 0.0409949 1.80195 -5.27416 -1.47766 1.77343 1 1
9 1 1.77026 3.5763 1.78401 4.90849 0.604804 -4.84599 1 1
10 1 3.54505 1.80923 1.78015 4.57556 -10.8702 5.45131 1 1
11 1 3.56572 0 0 0 0 0 1 3
12 1 5.34857 1.78286 0 0 0 0 1 3
13 1 4.45714 0.891429 0.891429 0 0 0 1 2
14 1 4.43279 2.69312 2.6958 -1.16188 9.42278 -9.15199 1 1
15 1 6.19416 0.934695 2.66534 -1.62569 5.70534 2.9813 1 1
16 1 6.24 2.67429 0.891429 0 0 0 1 2
17 1 7.13119 1.7654 1.77142 -6.18243 -1.76845 -1.99611 1 1
18 1 7.13143 0 0 0 0 0 1 3
19 1 8.02286 0.891429 0.891429 0 0 0 1 2
20 1 7.97577 2.68756 2.66636 -0.252453 -4.30336 4.72876 1 1
21 1 8.91429 1.78286 0 0 0 0 1 3
22 1 9.79871 0.912393 2.63531 -4.72664 -2.06621 3.78446 1 1
23 1 9.80572 2.67429 0.891429 0 0 0 1 2
24 1 8.91938 21.3768 1.76483 2.68762 -2.33713 -2.12426 1 1
25 1 10.6853 1.77026 1.73534 -6.49736 -0.438909 2.30591 1 1
26 1 10.6971 0 0 0 0 0 1 3
27 1 12.48 1.78286 0 0 0 0 1 3
28 1 11.5886 0.891429 0.891429 0 0 0 1 2
29 1 11.5505 2.67765 2.64297 2.28974 2.40999 5.28516 1 1
30 1 13.3996 0.876017 2.69072 -10.1277 -3.0197 -0.424355 1 1
31 1 13.3714 2.67429 0.891429 0 0 0 1 2
32 1 14.2743 1.76091 1.76245 12.7058 2.59736 6.76193 1 1
33 1 14.2629 0 0 0 0 0 1 3
34 1 16.0457 1.78286 0 0 0 0 1 3
35 1 15.1543 0.891429 0.891429 0 0 0 1 2
36 1 15.1499 2.6457 2.66939 5.65067 7.3242 1.16974 1 1
37 1 16.9057 0.864301 2.71143 4.96211 -5.92711 -6.80737 1 1
38 1 16.9371 2.67429 0.891429 0 0 0 1 2
39 1 16.0022 21.3829 1.8076 -2.95461 -7.84477 5.33458 1 1
40 1 17.803 1.78863 1.77133 1.44503 2.07587 3.28336 1 1
41 1 17.8286 0 0 0 0 0 1 3
42 1 19.6114 1.78286 0 0 0 0 1 3
43 1 18.72 0.891429 0.891429 0 0 0 1 2
44 1 18.6568 2.67182 2.66446 3.29712 1.1205 1.08329 1 1
45 1 20.49 0.953103 2.65718 -1.86806 1.29596 -4.93382 1 1
46 1 20.5029 2.67429 0.891429 0 0 0 1 2
47 1 0 3.56572 0 0 0 0 1 3
48 1 1.78286 5.34857 0 0 0 0 1 3
49 1 0.891429 4.45714 0.891429 0 0 0 1 2
50 1 0.900012 6.25671 2.67868 -2.05635 -0.465326 2.68033 1 1
51 1 2.65108 4.45754 2.71183 5.48015 6.25041 7.69583 1 1
52 1 2.67429 6.24 0.891429 0 0 0 1 2
53 1 3.54658 5.34923 1.74791 0.77487 4.37103 -2.11847 1 1
54 1 5.33706 3.60894 1.74659 3.6563 1.39609 0.619204 1 1
55 1 3.56572 3.56572 0 0 0 0 1 3
56 1 5.34857 5.34857 0 0 0 0 1 3
57 1 4.45714 4.45714 0.891429 0 0 0 1 2
58 1 4.44337 6.2444 2.67986 -1.83933 -2.23669 -2.11115 1 1
59 1 6.22713 4.4996 2.6073 -1.9502 -0.357406 -1.49894 1 1
60 1 6.24 6.24 0.891429 0 0 0 1 2
61 1 5.33828 7.15788 1.81704 -2.28691 6.15608 -2.84588 1 1
62 1 7.1189 5.33302 1.78298 0.250161 -3.45409 2.43623 1 1
63 1 7.13143 3.56572 0 0 0 0 1 3
64 1 8.92504 3.58402 1.78404 -4.37617 -8.05567 -2.2513 1 1
65 1 8.02286 4.45714 0.891429 0 0 0 1 2
66 1 8.0056 6.21134 2.65462 2.19951 3.44016 0.278596 1 1
67 1 8.91429 5.34857 0 0 0 0 1 3
68 1 9.82725 4.46143 2.70633 10.8038 -4.59214 -0.876268 1 1
69 1 9.80572 6.24 0.891429 0 0 0 1 2
70 1 10.7285 5.30959 1.83381 -3.07395 3.16774 -4.45059 1 1
71 1 12.4605 3.56418 1.82752 -5.37104 1.39279 10.4209 1 1
72 1 10.6971 3.56572 0 0 0 0 1 3
73 1 12.48 5.34857 0 0 0 0 1 3
74 1 11.5886 4.45714 0.891429 0 0 0 1 2
75 1 11.5445 6.2293 2.66563 -1.88711 -1.28805 7.30483 1 1
76 1 13.3512 4.42796 2.68768 3.17046 2.52733 1.29025 1 1
77 1 13.3714 6.24 0.891429 0 0 0 1 2
78 1 14.2612 5.36507 1.78271 -2.10361 7.58572 -0.405799 1 1
79 1 16.0245 3.52336 1.75714 3.25022 2.28605 5.70173 1 1
80 1 14.2629 3.56572 0 0 0 0 1 3
81 1 16.0457 5.34857 0 0 0 0 1 3
82 1 15.1543 4.45714 0.891429 0 0 0 1 2
83 1 15.1072 6.2389 2.66392 -0.890629 8.052 -3.14655 1 1
84 1 16.9043 4.40265 2.66271 6.25097 -5.68132 -0.157112 1 1
85 1 16.9371 6.24 0.891429 0 0 0 1 2
86 1 17.8125 5.34379 1.8025 2.9845 2.59264 -5.76207 1 1
87 1 19.5616 3.53458 1.76405 9.00244 2.45205 5.89078 1 1
88 1 21.3869 5.34783 1.7984 -4.77315 1.53487 4.60057 1 1
89 1 17.8286 3.56572 0 0 0 0 1 3
90 1 19.6114 5.34857 0 0 0 0 1 3
91 1 18.72 4.45714 0.891429 0 0 0 1 2
92 1 18.708 6.26213 2.67067 2.42351 -7.04595 0.546815 1 1
93 1 20.4589 4.40805 2.66424 -6.09424 2.54816 -2.44947 1 1
94 1 20.5029 6.24 0.891429 0 0 0 1 2
95 1 19.6093 7.12642 1.76112 0.204076 2.33514 2.62601 1 1
96 1 1.78351 7.0903 1.82436 0.0880931 0.504257 0.936407 1 1
97 1 0 7.13143 0 0 0 0 1 3
98 1 0.891429 8.02286 0.891429 0 0 0 1 2
99 1 2.67519 7.99161 2.67745 -0.285991 -4.22259 -3.52129 1 1
100 1 1.78286 8.91429 0 0 0 0 1 3
101 1 0.845297 9.76892 2.67983 1.63936 -2.31359 7.78072 1 1
102 1 2.67429 9.80572 0.891429 0 0 0 1 2
103 1 1.76322 10.686 1.81093 2.88292 4.13565 -3.15173 1 1
104 1 3.54516 8.8849 1.80268 -7.43004 -1.61697 -0.746515 1 1
105 1 3.56572 7.13143 0 0 0 0 1 3
106 1 4.45714 8.02286 0.891429 0 0 0 1 2
107 1 6.21363 8.01221 2.7185 3.69093 -0.163502 7.86222 1 1
108 1 5.34857 8.91429 0 0 0 0 1 3
109 1 4.46231 9.78823 2.71314 -0.973379 1.53019 3.5478 1 1
110 1 6.24 9.80572 0.891429 0 0 0 1 2
111 1 7.11708 8.91495 1.81631 -1.09267 -0.0344346 -6.28101 1 1
112 1 8.9114 7.12651 1.7686 -4.89579 2.58749 2.65933 1 1
113 1 7.13143 7.13143 0 0 0 0 1 3
114 1 8.02286 8.02286 0.891429 0 0 0 1 2
115 1 9.78404 7.99219 2.59556 -1.26987 6.81799 3.24508 1 1
116 1 8.02436 9.73594 2.68119 0.546137 -0.341156 2.06088 1 1
117 1 8.91429 8.91429 0 0 0 0 1 3
118 1 9.80572 9.80572 0.891429 0 0 0 1 2
119 1 10.696 8.89625 1.75245 2.47197 -4.75266 -2.90711 1 1
120 1 12.4857 7.10257 1.78209 0.175935 5.60846 -2.00359 1 1
121 1 10.6971 7.13143 0 0 0 0 1 3
122 1 11.5886 8.02286 0.891429 0 0 0 1 2
123 1 13.3288 8.03807 2.71041 8.35638 5.25759 -1.93467 1 1
124 1 12.48 8.91429 0 0 0 0 1 3
125 1 11.5642 9.77373 2.65297 -1.94137 3.05292 3.00819 1 1
126 1 13.3714 9.80572 0.891429 0 0 0 1 2
127 1 12.4508 10.7358 1.76396 2.29288 -2.39099 -6.53829 1 1
128 1 16.0458 7.09416 1.79718 8.92451 3.3645 2.93661 1 1
129 1 14.2597 8.92665 1.78444 -9.41431 -1.50889 2.30448 1 1
130 1 14.2629 7.13143 0 0 0 0 1 3
131 1 15.1543 8.02286 0.891429 0 0 0 1 2
132 1 16.9261 8.05776 2.66101 -1.1522 6.82802 3.69407 1 1
133 1 16.0457 8.91429 0 0 0 0 1 3
134 1 15.1193 9.83096 2.70792 -3.21664 0.993841 -2.08475 1 1
135 1 16.9371 9.80572 0.891429 0 0 0 1 2
136 1 16.0328 10.7316 1.77989 6.67488 -2.54789 -4.35296 1 1
137 1 17.8477 8.94321 1.78676 2.70514 -6.65224 1.19613 1 1
138 1 21.3738 8.89502 1.75722 -3.50061 0.922967 -2.1926 1 1
139 1 17.8286 7.13143 0 0 0 0 1 3
140 1 18.72 8.02286 0.891429 0 0 0 1 2
141 1 20.5068 8.03559 2.62891 5.53434 -11.4472 4.63508 1 1
142 1 19.6114 8.91429 0 0 0 0 1 3
143 1 18.7261 9.85036 2.64521 1.55948 6.27463 -5.2846 1 1
144 1 20.5029 9.80572 0.891429 0 0 0 1 2
145 1 0 10.6971 0 0 0 0 1 3
146 1 1.78286 12.48 0 0 0 0 1 3
147 1 0.891429 11.5886 0.891429 0 0 0 1 2
148 1 2.67265 11.598 2.68879 1.9766 7.04332 2.89595 1 1
149 1 0.924407 13.4161 2.68123 2.04005 8.30144 0.275551 1 1
150 1 2.67429 13.3714 0.891429 0 0 0 1 2
151 1 21.3756 12.476 1.83071 8.51801 -9.18374 3.13028 1 1
152 1 5.33098 10.6578 1.78605 -2.66643 6.33693 -7.77923 1 1
153 1 3.51443 12.4664 1.79731 -0.0820686 -4.35696 4.28295 1 1
154 1 3.56572 10.6971 0 0 0 0 1 3
155 1 5.34857 12.48 0 0 0 0 1 3
156 1 4.45714 11.5886 0.891429 0 0 0 1 2
157 1 6.23909 11.58 2.66796 -2.92994 -4.7202 2.97771 1 1
158 1 4.4096 13.3559 2.70329 -3.67246 -5.08726 -9.09615 1 1
159 1 6.24 13.3714 0.891429 0 0 0 1 2
160 1 5.32931 14.186 1.76229 2.7973 2.48266 0.380114 1 1
161 1 8.91348 10.6555 1.77519 -3.61405 0.437333 -5.01627 1 1
162 1 7.1173 12.4818 1.77493 1.6931 0.344246 0.344667 1 1
163 1 7.13143 10.6971 0 0 0 0 1 3
164 1 8.02286 11.5886 0.891429 0 0 0 1 2
165 1 8.91429 12.48 0 0 0 0 1 3
166 1 9.80682 11.5861 2.646 -4.5272 0.605644 -5.82651 1 1
167 1 7.99768 13.3806 2.70421 3.49108 -2.46146 8.1546 1 1
168 1 9.80572 13.3714 0.891429 0 0 0 1 2
169 1 10.7197 12.5097 1.78709 7.88658 -4.1961 8.73373 1 1
170 1 10.6971 10.6971 0 0 0 0 1 3
171 1 12.48 12.48 0 0 0 0 1 3
172 1 11.5886 11.5886 0.891429 0 0 0 1 2
173 1 13.3178 11.5934 2.65596 -0.602279 -3.20862 -2.65453 1 1
174 1 11.5558 13.4056 2.65977 -0.407487 -1.88815 4.25779 1 1
175 1 13.3714 13.3714 0.891429 0 0 0 1 2
176 1 12.4528 14.2504 1.7592 -0.873901 -2.1129 7.30797 1 1
177 1 14.2451 12.4704 1.74614 0.0067852 6.74971 -0.843861 1 1
178 1 14.2629 10.6971 0 0 0 0 1 3
179 1 16.0457 12.48 0 0 0 0 1 3
180 1 15.1543 11.5886 0.891429 0 0 0 1 2
181 1 16.9051 11.6256 2.64187 -4.06461 8.73803 -5.4614 1 1
182 1 15.1133 13.3475 2.64141 2.57004 5.27718 -6.2309 1 1
183 1 16.9371 13.3714 0.891429 0 0 0 1 2
184 1 17.8418 12.4921 1.79867 3.37973 -1.12038 10.0241 1 1
185 1 19.6384 10.7003 1.7693 -4.02546 1.21221 -3.16238 1 1
186 1 17.8286 10.6971 0 0 0 0 1 3
187 1 19.6114 12.48 0 0 0 0 1 3
188 1 18.72 11.5886 0.891429 0 0 0 1 2
189 1 20.4986 11.5841 2.65651 -5.05708 -5.83029 5.65372 1 1
190 1 18.7069 13.3232 2.69419 -3.59208 -1.24778 -0.352414 1 1
191 1 20.5029 13.3714 0.891429 0 0 0 1 2
192 1 19.5948 14.2833 1.7752 -4.71835 -0.91773 -5.2173 1 1
193 1 1.78625 14.2661 1.79912 -3.17343 -1.0534 0.0835853 1 1
194 1 0 14.2629 0 0 0 0 1 3
195 1 1.78286 16.0457 0 0 0 0 1 3
196 1 0.891429 15.1543 0.891429 0 0 0 1 2
197 1 0.94469 16.9522 2.63971 -0.924055 3.78583 7.95929 1 1
198 1 2.67248 15.1221 2.6767 1.34898 -6.07914 1.09171 1 1
199 1 2.67429 16.9371 0.891429 0 0 0 1 2
200 1 0.0218641 16.0587 1.74994 -5.01415 -0.8397 -4.11621 1 1
201 1 3.55873 16.0075 1.77901 -2.48122 -0.895792 11.6947 1 1
202 1 3.56572 14.2629 0 0 0 0 1 3
203 1 5.34857 16.0457 0 0 0 0 1 3
204 1 4.45714 15.1543 0.891429 0 0 0 1 2
205 1 4.45854 16.9234 2.64327 -1.62379 3.92473 6.26873 1 1
206 1 6.17357 15.0501 2.6963 5.8434 2.38621 -0.248721 1 1
207 1 6.24 16.9371 0.891429 0 0 0 1 2
208 1 7.1003 16.0066 1.81305 6.36832 5.03251 3.36436 1 1
209 1 5.34218 17.853 1.77307 -0.858438 1.70056 3.42281 1 1
210 1 8.89986 14.2564 1.81302 0.908768 -6.29995 1.24253 1 1
211 1 7.13143 14.2629 0 0 0 0 1 3
212 1 8.02286 15.1543 0.891429 0 0 0 1 2
213 1 7.98573 16.8847 2.65159 -1.01518 -4.63075 9.80619 1 1
214 1 8.91429 16.0457 0 0 0 0 1 3
215 1 9.79867 15.1649 2.68338 5.32728 -4.75052 -1.47755 1 1
216 1 9.80572 16.9371 0.891429 0 0 0 1 2
217 1 8.87912 17.7861 1.77427 7.11159 -0.829725 -2.79874 1 1
218 1 10.6579 16.0665 1.77294 -8.15175 0.613316 -0.23909 1 1
219 1 10.6971 14.2629 0 0 0 0 1 3
220 1 12.48 16.0457 0 0 0 0 1 3
221 1 11.5886 15.1543 0.891429 0 0 0 1 2
222 1 11.58 16.9382 2.6455 -1.49552 -3.12753 -0.436636 1 1
223 1 13.3958 15.1254 2.68153 -3.47582 2.51994 2.53981 1 1
224 1 13.3714 16.9371 0.891429 0 0 0 1 2
225 1 12.4814 17.8319 1.75375 1.1509 3.75521 -0.0400441 1 1
226 1 16.0174 14.2373 1.8158 8.8173 1.15348 3.50527 1 1
227 1 14.2902 16.0302 1.76386 7.36736 -4.16903 3.23756 1 1
228 1 14.2629 14.2629 0 0 0 0 1 3
229 1 16.0457 16.0457 0 0 0 0 1 3
230 1 15.1543 15.1543 0.891429 0 0 0 1 2
231 1 15.1537 16.9191 2.67216 -3.66064 4.14005 -1.67134 1 1
232 1 16.9355 15.1843 2.67165 -2.2303 -0.91894 -2.80853 1 1
233 1 16.9371 16.9371 0.891429 0 0 0 1 2
234 1 17.8093 16.0413 1.8146 0.465813 3.35835 6.7687 1 1
235 1 17.8286 14.2629 0 0 0 0 1 3
236 1 19.6114 16.0457 0 0 0 0 1 3
237 1 18.72 15.1543 0.891429 0 0 0 1 2
238 1 18.7201 16.945 2.69995 -2.36149 -4.53646 2.09361 1 1
239 1 20.5528 15.1419 2.63557 -5.2286 14.0251 2.87743 1 1
240 1 20.5029 16.9371 0.891429 0 0 0 1 2
241 1 19.5953 17.8788 1.79981 2.92029 6.27956 1.04093 1 1
242 1 1.80828 17.8314 1.7853 4.67043 -5.02717 5.33628 1 1
243 1 0 17.8286 0 0 0 0 1 3
244 1 1.78286 19.6114 0 0 0 0 1 3
245 1 0.891429 18.72 0.891429 0 0 0 1 2
246 1 0.854786 20.5329 2.66237 5.24213 -2.2198 -3.65447 1 1
247 1 2.69934 18.7325 2.65574 4.36703 -5.51392 0.447191 1 1
248 1 2.67429 20.5029 0.891429 0 0 0 1 2
249 1 3.56877 19.6021 1.74529 3.70978 3.2226 -5.41077 1 1
250 1 21.3472 19.5978 1.80286 2.10266 4.79027 1.72595 1 1
251 1 5.32965 0.0180896 1.77867 4.40252 5.77186 -2.66078 1 1
252 1 3.56572 17.8286 0 0 0 0 1 3
253 1 5.34857 19.6114 0 0 0 0 1 3
254 1 4.45714 18.72 0.891429 0 0 0 1 2
255 1 4.38195 20.4646 2.67852 -10.1632 -3.60482 -6.27321 1 1
256 1 6.21615 18.7253 2.67327 -2.93983 4.18403 -9.6007 1 1
257 1 6.24 20.5029 0.891429 0 0 0 1 2
258 1 7.1418 19.6202 1.77958 7.97954 2.40172 -3.76564 1 1
259 1 7.13143 17.8286 0 0 0 0 1 3
260 1 8.02286 18.72 0.891429 0 0 0 1 2
261 1 8.02436 20.4708 2.66336 -0.575287 -5.0326 4.47406 1 1
262 1 8.91429 19.6114 0 0 0 0 1 3
263 1 9.7978 18.6965 2.67949 4.32341 2.0244 0.540799 1 1
264 1 9.80572 20.5029 0.891429 0 0 0 1 2
265 1 10.7064 19.6246 1.7902 11.5987 -1.31375 -4.03368 1 1
266 1 12.4921 21.3659 1.79238 -3.84168 1.63447 -5.2199 1 1
267 1 10.6971 17.8286 0 0 0 0 1 3
268 1 12.48 19.6114 0 0 0 0 1 3
269 1 11.5886 18.72 0.891429 0 0 0 1 2
270 1 11.5522 20.5344 2.70299 6.01379 2.88697 -1.91422 1 1
271 1 13.363 18.6873 2.66508 2.22439 -1.11739 7.57674 1 1
272 1 13.3714 20.5029 0.891429 0 0 0 1 2
273 1 14.2726 19.6132 1.83355 -8.46649 5.04414 -2.34039 1 1
274 1 16.0377 17.8015 1.75363 7.21628 -6.08892 2.69824 1 1
275 1 14.2629 17.8286 0 0 0 0 1 3
276 1 16.0457 19.6114 0 0 0 0 1 3
277 1 15.1543 18.72 0.891429 0 0 0 1 2
278 1 15.1251 20.4959 2.74784 -4.52724 -7.00132 -6.65805 1 1
279 1 16.9017 18.7054 2.67149 -4.4295 -2.63476 -5.10933 1 1
280 1 16.9371 20.5029 0.891429 0 0 0 1 2
281 1 19.6367 21.3872 1.7838 3.9031 -9.53707 0.541633 1 1
282 1 17.8423 19.6228 1.78744 -2.44836 1.18146 3.72484 1 1
283 1 17.8286 17.8286 0 0 0 0 1 3
284 1 19.6114 19.6114 0 0 0 0 1 3
285 1 18.72 18.72 0.891429 0 0 0 1 2
286 1 18.7025 20.5054 2.68942 5.44948 -9.01837 -1.9533 1 1
287 1 20.5124 18.7197 2.6954 4.82026 -4.66985 8.78177 1 1
288 1 20.5029 20.5029 0.891429 0 0 0 1 2
289 1 1.77163 1.74428 3.59115 -3.34016 10.9454 4.3839 1 1
290 1 0.892024 0.854691 4.48705 1.58172 1.55773 5.29074 1 1
291 1 2.66364 2.6572 4.46092 -2.28796 -12.3521 2.69839 1 1
292 1 1.76968 21.376 5.37052 1.1695 0.373176 7.34001 1 1
293 1 1.7855 3.55986 5.37144 4.53283 -5.20306 7.42252 1 1
294 1 21.3808 1.78675 5.34841 4.16018 4.286 2.94332 1 1
295 1 21.3758 0.0314371 3.58652 -9.59626 -1.40142 4.43798 1 1
296 1 3.56674 1.76552 5.34425 0.369333 -5.23897 0.534238 1 1
297 1 5.3477 1.79136 3.52261 5.8863 -0.303845 4.42548 1 1
298 1 4.46481 0.85074 4.44023 6.0188 4.46367 8.07605 1 1
299 1 6.25836 0.87906 6.22798 3.95254 0.43974 1.86658 1 1
300 1 6.22524 2.6745 4.42093 -3.38376 2.88494 1.76089 1 1
301 1 3.55916 21.3804 3.50063 1.95282 -4.66941 -6.81985 1 1
302 1 7.1041 21.357 3.58895 1.41209 2.46023 -3.30035 1 1
303 1 5.33512 21.3426 5.34033 -3.03649 -0.841249 2.4135 1 1
304 1 7.1236 3.60627 3.52084 1.1389 -0.538601 -2.50618 1 1
305 1 7.0941 1.75658 5.32887 1.88102 0.869633 4.10731 1 1
306 1 8.86469 1.74899 3.53204 -5.35921 5.54293 0.830229 1 1
307 1 7.99353 0.842362 4.46673 1.69104 0.313988 -0.886473 1 1
308 1 7.97649 2.68049 6.20863 1.21792 9.955 0.709086 1 1
309 1 9.78514 0.857162 6.2529 -12.1793 2.14898 2.09184 1 1
310 1 9.76062 2.66197 4.43077 -5.4323 3.61808 2.8322 1 1
311 1 10.6929 1.79627 5.34973 -4.5077 -4.66019 4.39981 1 1
312 1 12.4619 1.76252 3.52091 1.24137 4.74799 1.33538 1 1
313 1 11.5622 0.878318 4.42225 -0.249409 1.1961 -3.46352 1 1
314 1 11.5593 2.67307 6.21323 4.22953 3.52305 1.84803 1 1
315 1 13.3652 2.68238 4.41329 6.49448 -2.97604 1.49625 1 1
316 1 13.3065 0.873036 6.26865 5.20195 -3.92353 9.487 1 1
317 1 12.4496 3.55654 5.34165 2.24573 3.30474 4.62569 1 1
318 1 14.2905 1.74416 5.39522 6.06604 3.67678 -3.09615 1 1
319 1 12.4652 21.359 5.32002 2.13351 -2.82486 1.36425 1 1
320 1 14.2935 3.5528 3.54397 6.77931 0.666407 5.86197 1 1
321 1 16.0992 1.77716 3.61172 -6.08511 1.83892 7.8205 1 1
322 1 15.1439 0.840195 4.47411 2.77956 -4.88362 -2.65442 1 1
323 1 15.1188 2.62349 6.27731 -0.587344 0.601217 2.56947 1 1
324 1 16.8805 2.6502 4.50282 -3.5334 -0.934114 -0.487568 1 1
325 1 17.7862 1.7292 5.35663 -1.47498 -0.364426 6.15434 1 1
326 1 15.9967 21.359 5.36619 -10.1195 4.52049 3.61205 1 1
327 1 19.5604 1.77916 3.56618 -0.192361 0.649519 0.835165 1 1
328 1 18.687 0.855571 4.48083 4.48016 -6.83226 10.2951 1 1
329 1 20.4564 2.62976 4.4626 -2.57551 -1.31253 -2.69584 1 1
330 1 17.7682 0.0317614 3.56118 -7.49815 2.2636 6.60987 1 1
331 1 19.6029 21.3935 5.33633 1.39484 9.54984 4.85989 1 1
332 1 21.3895 3.52012 3.56235 -0.917099 -3.97339 9.20394 1 1
333 1 1.70161 5.31526 3.58201 -0.181939 1.07631 3.91968 1 1
334 1 0.868188 4.39188 4.49489 0.871275 6.98041 0.840286 1 1
335 1 2.67594 4.48329 6.27584 0.906075 8.49617 6.0581 1 1
336 1 2.67112 6.29676 4.45299 1.49572 6.90009 5.31495 1 1
337 1 3.57636 3.53455 3.60759 3.11746 -2.2139 -0.620615 1 1
338 1 21.3498 5.36277 5.33759 -0.708153 -1.76082 -0.96252 1 1
339 1 3.60285 5.40141 5.35452 -1.84873 1.15477 0.7262 1 1
340 1 5.35198 3.55604 5.31356 -6.93002 5.0527 5.29762 1 1
341 1 5.34598 5.33399 3.53811 -8.01943 -0.358942 -0.266797 1 1
342 1 4.43097 4.4742 4.46006 9.94328 -1.50484 -4.76472 1 1
343 1 4.44535 6.25732 6.29038 6.36678 -1.77607 2.56354 1 1
344 1 6.20203 6.19246 4.47979 0.27712 0.743502 -1.47845 1 1
345 1 7.12708 5.35176 5.31406 5.32706 7.98467 5.29272 1 1
346 1 5.36683 7.14802 5.39677 3.91404 -3.85959 0.494221 1 1
347 1 6.26073 4.48161 6.2156 8.52993 3.10253 3.83403 1 1
348 1 8.87164 3.56 5.33127 -3.98219 2.65328 -1.85964 1 1
349 1 10.6965 3.54429 3.56862 -2.40503 -0.00936753 2.18805 1 1
350 1 8.92438 5.33568 3.57634 3.10206 -1.04372 4.42222 1 1
351 1 7.99825 4.47415 4.41236 -7.86574 -4.12923 -1.64691 1 1
352 1 8.01557 6.20883 6.22486 -2.17568 5.30324 -2.17387 1 1
353 1 9.76852 4.45088 6.26913 -9.90182 0.275351 -3.09849 1 1
354 1 9.79714 6.20365 4.46415 3.33855 1.72065 -1.78924 1 1
355 1 10.7024 5.33688 5.35505 -0.686491 -3.31227 0.910099 1 1
356 1 12.4328 5.3765 3.5466 -5.19997 2.49791 1.94131 1 1
357 1 11.5339 4.42568 4.43257 -1.53474 4.21783 -0.522576 1 1
358 1 13.3969 6.23718 4.45016 -1.27249 -9.67996 2.51777 1 1
359 1 14.2381 5.28526 5.35375 5.33951 0.9891 2.28734 1 1
360 1 16.021 3.53246 5.35362 1.35549 -0.678994 4.72841 1 1
361 1 17.7585 3.55172 3.57042 5.11125 11.2817 -3.32096 1 1
362 1 16.0302 5.3154 3.56747 -0.769098 1.40994 -1.74907 1 1
363 1 15.1118 4.4247 4.46173 -6.19788 9.22875 -7.53279 1 1
364 1 16.9104 6.24218 4.47506 -5.55471 4.76389 5.55978 1 1
365 1 16.8926 4.48508 6.26379 0.192136 0.691718 3.2736 1 1
366 1 16.0262 7.13575 5.36422 2.66459 -7.32424 3.51265 1 1
367 1 15.135 6.22193 6.23422 2.65071 -2.42193 1.25632 1 1
368 1 19.5716 3.52677 5.36279 -1.18259 -5.01576 8.20892 1 1
369 1 17.8193 5.33954 5.3507 3.16494 0.867172 3.80097 1 1
370 1 19.6001 5.28746 3.53153 -10.0301 -1.86655 7.09853 1 1
371 1 18.7131 4.44898 4.43251 -0.1193 8.20674 -10.4665 1 1
372 1 20.4659 4.45326 6.23246 3.24418 -4.39053 4.41191 1 1
373 1 20.4626 6.17845 4.38195 0.406507 5.57094 4.70705 1 1
374 1 19.6007 7.14524 5.33259 4.14694 2.64503 1.74361 1 1
375 1 21.3787 7.09528 3.57534 -2.34866 -2.69933 7.45476 1 1
376 1 1.74506 7.11978 5.35394 -0.842517 2.62201 -6.49891 1 1
377 1 1.78217 8.85091 3.55506 2.45698 -4.25985 -5.94424 1 1
378 1 0.87772 8.00497 4.45355 -2.54134 -4.94627 4.54334 1 1
379 1 2.6433 8.01994 6.28725 0.59541 -2.62126 7.27248 1 1
380 1 0.853619 9.77503 6.21736 3.28315 -3.96073 1.69793 1 1
381 1 2.59714 9.75153 4.50771 -7.78702 4.85449 12.3106 1 1
382 1 21.353 8.85889 5.34482 -0.871291 -2.21161 2.03959 1 1
383 1 1.77226 10.671 5.36942 3.31785 10.1361 -1.39275 1 1
384 1 3.57659 7.16048 3.60681 2.72362 4.84417 1.50226 1 1
385 1 7.17961 7.05734 3.5731 3.92728 7.60297 0.605689 1 1
386 1 3.55822 10.6904 3.54933 -1.81318 1.89537 4.08876 1 1
387 1 3.52018 8.9048 5.38639 -0.457025 -1.24429 -1.27849 1 1
388 1 5.36573 8.94065 3.60798 3.00039 -6.0969 0.902601 1 1
389 1 4.43816 8.0054 4.52391 -8.21512 -1.99881 -3.11939 1 1
390 1 4.42297 9.82998 6.25291 0.201829 -1.52731 5.53502 1 1
391 1 6.26151 9.78903 4.50162 -0.251398 8.94383 -2.10623 1 1
392 1 8.94776 7.06908 5.36221 4.3644 4.10768 3.06625 1 1
393 1 7.16002 8.87938 5.3667 -10.4075 -1.3881 -5.48867 1 1
394 1 8.92603 8.83714 3.53791 2.04521 5.27452 4.03871 1 1
395 1 8.05306 7.92442 4.48793 0.494925 -4.82215 -5.10824 1 1
396 1 9.79267 9.79598 4.43075 1.23905 1.24127 4.00777 1 1
397 1 10.6989 8.91214 5.33803 -2.76519 3.4727 4.07603 1 1
398 1 10.7029 10.7249 3.58417 3.24924 -5.25117 7.40983 1 1
399 1 9.86217 8.03397 6.2217 5.144 5.33342 6.65347 1 1
400 1 12.4557 7.07682 5.33714 -4.11651 -2.05933 4.38124 1 1
401 1 10.6685 7.08994 3.56016 -2.58426 -1.2621 -0.170155 1 1
402 1 12.4181 8.94051 3.57235 0.257422 2.90491 -9.54226 1 1
403 1 11.5747 7.99324 4.45 2.41574 6.02458 -4.06975 1 1
404 1 13.3832 9.83049 4.40521 -5.52209 -1.82798 7.91543 1 1
405 1 14.2855 7.11592 3.57798 1.90903 1.27671 5.93199 1 1
406 1 14.2432 8.93136 5.36396 -9.0517 -1.43715 5.64633 1 1
407 1 17.8597 7.09572 3.54043 -2.58543 3.22859 -1.07902 1 1
408 1 16.0784 8.90189 3.58148 3.47354 2.68412 -1.98923 1 1
409 1 15.1523 8.01714 4.43822 0.413962 -11.4235 2.41896 1 1
410 1 16.9289 9.84375 4.44362 -2.4994 0.960756 -0.451919 1 1
411 1 16.0125 10.7256 5.32073 -4.74618 -2.87012 2.96107 1 1
412 1 16.9188 8.02712 6.22669 1.91761 -8.07961 2.43858 1 1
413 1 17.8504 8.97372 5.29743 -7.21695 6.99328 1.40128 1 1
414 1 19.5674 8.89399 3.53664 -0.674289 -5.76698 5.83684 1 1
415 1 18.7218 8.01366 4.41417 -1.74051 -1.14633 8.86117 1 1
416 1 18.6694 9.86915 6.20494 -3.72787 3.09406 5.42815 1 1
417 1 20.4704 9.74485 4.45876 -2.95797 3.30335 2.76948 1 1
418 1 20.4627 8.02398 6.237 -4.13721 0.451546 1.17631 1 1
419 1 19.6448 10.694 5.34981 1.05873 -3.42435 5.28355 1 1
420 1 21.3195 10.5996 3.56125 -1.67154 -5.22287 3.43133 1 1
421 1 1.7568 12.4995 3.61323 -2.84246 2.66171 6.79323 1 1
422 1 0.892176 11.5599 4.47629 -2.17784 0.330356 3.98385 1 1
423 1 2.63587 11.5922 6.19997 1.68414 -3.47765 0.757008 1 1
424 1 0.905782 13.3773 6.25289 -1.32633 -4.5077 -1.36413 1 1
425 1 2.68727 13.3235 4.49436 -3.2578 0.946028 0.853301 1 1
426 1 0.00130052 12.4785 5.35276 -9.29439 -1.1785 6.20515 1 1
427 1 5.34701 10.6956 5.33566 9.97817 -3.05806 -2.30227 1 1
428 1 3.51977 14.2404 3.55419 0.0712691 3.10384 -2.18619 1 1
429 1 3.5764 12.4337 5.32951 -4.24582 0.737637 6.85 1 1
430 1 5.33698 12.4849 3.57372 3.41775 1.13858 -2.95286 1 1
431 1 4.44302 11.5952 4.43619 3.09317 -4.7155 6.33591 1 1
432 1 6.1987 13.3648 4.51028 -3.90685 -3.02637 10.5141 1 1
433 1 7.09739 14.2611 3.6076 -5.58727 1.65181 -0.464941 1 1
434 1 6.229 11.5972 6.2583 1.98558 -0.343743 0.74651 1 1
435 1 7.13415 10.6665 3.5905 4.07603 13.0487 2.6652 1 1
436 1 7.12361 12.506 5.31652 3.43603 4.36452 0.782323 1 1
437 1 8.91908 10.6902 5.3422 1.03439 -4.84242 3.44906 1 1
438 1 8.91867 12.4706 3.53515 4.58453 -9.51979 8.0761 1 1
439 1 7.98061 11.5729 4.43694 -8.26363 -5.03579 -5.18004 1 1
440 1 9.79053 11.5785 6.22567 -3.7152 -12.9991 4.01578 1 1
441 1 8.04837 13.3817 6.26433 -2.27629 6.28555 1.49822 1 1
442 1 9.83175 13.3677 4.43117 9.73923 -2.81138 5.77803 1 1
443 1 10.6913 14.2408 3.56517 0.149189 4.20333 5.98902 1 1
444 1 12.4835 10.7141 5.33991 0.217108 1.85315 1.82384 1 1
445 1 10.6774 12.4371 5.31362 1.45109 -0.808168 -10.7939 1 1
446 1 12.4471 12.4927 3.56382 -1.90213 -5.97296 11.2156 1 1
447 1 11.6014 11.6147 4.43373 -7.90408 -8.01622 -3.0046 1 1
448 1 13.3619 11.6315 6.22562 2.86833 -7.34963 0.0765489 1 1
449 1 11.597 13.3389 6.27285 -1.39229 0.828249 2.7025 1 1
450 1 13.3773 13.3905 4.44144 2.69372 -6.51242 -1.8539 1 1
451 1 14.2429 10.7356 3.56606 5.01637 -5.44548 9.94083 1 1
452 1 14.2485 12.4898 5.35391 3.58959 -2.67918 2.80584 1 1
453 1 16.0123 12.5057 3.56764 -6.8372 6.11968 0.0435767 1 1
454 1 15.11 11.6119 4.44877 7.79625 2.5315 6.10786 1 1
455 1 16.9183 11.573 6.26061 -2.17115 3.56827 1.46017 1 1
456 1 16.899 13.3527 4.45701 -1.79938 8.58053 -2.45323 1 1
457 1 17.8095 12.4365 5.36327 4.90232 -0.88707 -2.28785 1 1
458 1 15.1756 13.3501 6.22034 7.45224 3.97654 9.79545 1 1
459 1 17.7875 10.7347 3.59038 -2.84595 2.24948 -2.14294 1 1
460 1 19.6198 12.4323 3.56286 1.29092 2.07572 6.35882 1 1
461 1 18.7569 11.5922 4.47033 -0.225754 2.68149 -0.0157065 1 1
462 1 18.7148 13.3208 6.26241 0.440017 3.89758 8.15245 1 1
463 1 20.5557 13.3338 4.43205 -3.2245 1.23874 -1.64332 1 1
464 1 20.5239 11.5969 6.23394 -4.35131 -2.45053 -2.02957 1 1
465 1 1.75281 14.2529 5.3635 -6.50406 7.91251 2.26022 1 1
466 1 1.78029 16.0657 3.58927 -1.20546 9.36187 1.0745 1 1
467 1 0.857812 15.1768 4.52167 -2.67006 1.38016 4.75896 1 1
468 1 2.66259 15.159 6.23068 8.79439 -4.65304 0.70827 1 1
469 1 2.65072 16.9727 4.49158 -0.873934 5.38024 4.5334 1 1
470 1 21.3434 16.0527 5.37922 -4.79797 0.198953 -4.86833 1 1
471 1 0.0297812 14.2803 3.56546 1.21172 -1.98533 -2.02392 1 1
472 1 1.75489 17.9119 5.39159 -8.04879 -2.29423 7.98754 1 1
473 1 5.33595 14.2589 5.36636 1.63058 2.22344 3.53252 1 1
474 1 3.52211 16.0544 5.39918 3.56978 -2.26753 -4.59701 1 1
475 1 5.27835 16.0285 3.51514 -8.02229 1.30013 4.55941 1 1
476 1 4.40911 15.1518 4.48348 -1.65955 -1.88425 -6.46435 1 1
477 1 4.43492 16.9377 6.22868 0.820053 6.96414 -2.55753 1 1
478 1 6.253 15.1341 6.22862 2.30804 4.56606 5.85642 1 1
479 1 6.22768 16.9506 4.42151 2.13108 5.39263 -5.95326 1 1
480 1 7.131 16.0246 5.3434 -9.07075 2.86501 2.76843 1 1
481 1 8.95542 14.2585 5.32517 5.51334 -3.39298 -0.589279 1 1
482 1 8.87444 16.019 3.56292 3.57721 3.8391 1.50318 1 1
483 1 8.07858 15.1545 4.45552 -5.76458 4.24568 6.43818 1 1
484 1 8.05652 16.9289 6.26025 1.60414 7.30731 1.99464 1 1
485 1 9.82899 15.1408 6.22036 7.8502 -1.70016 -8.52221 1 1
486 1 9.77911 16.907 4.4217 3.95797 -3.97251 0.52013 1 1
487 1 10.7184 16.0312 5.28288 -4.5658 7.29019 0.466383 1 1
488 1 8.89823 17.8144 5.30893 7.93032 -4.77469 -2.96352 1 1
489 1 10.6791 17.8219 3.55048 0.248122 7.64812 -3.86657 1 1
490 1 12.4573 14.2662 5.35787 -0.513169 -1.34852 3.4454 1 1
491 1 12.4808 16.0019 3.52193 -3.56235 -6.28786 1.5904 1 1
492 1 11.5768 15.1048 4.43646 -7.2592 -1.55986 6.36321 1 1
493 1 11.5742 16.9173 6.24524 3.25688 -0.524437 3.09031 1 1
494 1 13.3788 16.9172 4.42903 -0.747351 2.83418 -3.19441 1 1
495 1 13.3978 15.159 6.2261 -5.68177 -6.88517 -4.70016 1 1
496 1 12.481 17.7967 5.32632 0.811814 -7.05254 -0.360328 1 1
497 1 14.2481 14.2341 3.54524 5.47938 -5.3323 -1.89946 1 1
498 1 16.029 14.2432 5.36803 -1.12672 4.29321 2.19455 1 1
499 1 17.8633 14.2776 3.586 -5.12424 0.779404 3.99391 1 1
500 1 14.2755 16.0608 5.36556 6.46335 3.99631 7.86426 1 1
501 1 14.2884 17.8271 3.53695 3.6961 -0.415478 2.98669 1 1
502 1 15.9971 16.0433 3.54871 -4.0098 1.97621 4.5464 1 1
503 1 15.1386 15.1726 4.4594 -2.50147 8.411 -1.68076 1 1
504 1 16.9633 16.8765 4.44024 -8.63692 5.91057 5.47089 1 1
505 1 16.9321 15.1134 6.2787 2.1414 -3.43083 -3.02386 1 1
506 1 17.8574 16.012 5.39004 5.63936 -6.66297 -2.92075 1 1
507 1 19.6046 14.2208 5.33699 -5.17984 -0.73509 2.95822 1 1
508 1 19.6351 16.0469 3.56507 2.18412 5.5443 -0.0460878 1 1
509 1 18.749 15.1485 4.4611 7.07829 -2.03739 2.43394 1 1
510 1 20.4867 16.9526 4.41851 2.54519 5.05889 -5.49761 1 1
511 1 19.5816 17.848 5.37161 -2.23269 12.0333 -0.673543 1 1
512 1 20.4745 15.155 6.28866 2.93252 -8.52031 0.937421 1 1
513 1 1.77297 19.6396 3.53348 -1.28747 4.65054 2.38915 1 1
514 1 0.878506 18.7372 4.44091 2.02929 -4.18717 6.42029 1 1
515 1 0.881496 20.5524 6.28496 -5.2417 2.55965 3.31894 1 1
516 1 2.69767 20.5024 4.45932 -8.56442 6.19696 -0.807237 1 1
517 1 21.3697 17.868 3.55536 -6.5216 -2.58635 0.392858 1 1
518 1 21.3378 19.6644 5.37264 1.46011 -4.0567 -0.378083 1 1
519 1 2.65836 18.7398 6.29357 12.1319 -0.578914 -6.12132 1 1
520 1 5.35089 17.8119 5.31962 -1.18918 -5.86525 -0.0803997 1 1
521 1 3.56447 17.8237 3.59377 6.09029 4.4983 5.73531 1 1
522 1 3.55724 19.6173 5.39038 0.318103 -0.385496 7.80264 1 1
523 1 5.32018 19.5791 3.55275 -3.31385 2.62576 4.6214 1 1
524 1 4.43197 18.6904 4.45198 6.62157 -1.83855 -0.432142 1 1
525 1 4.43868 20.4595 6.24143 -2.40106 -1.84389 -0.659996 1 1
526 1 6.27078 18.7159 6.25082 -8.7695 -3.12478 -3.7413 1 1
527 1 6.21949 20.4632 4.47529 5.46844 8.10175 -2.65153 1 1
528 1 7.14143 17.8157 3.56818 -2.52805 -1.97925 1.89047 1 1
529 1 7.16774 19.5792 5.2637 -2.69278 0.302128 0.585631 1 1
530 1 8.90541 21.3822 5.35499 -1.78408 -3.75201 4.44913 1 1
531 1 8.90998 19.6044 3.5286 -3.64338 2.51457 11.2042 1 1
532 1 8.03227 18.7014 4.40439 -3.4202 5.94666 -10.8267 1 1
533 1 8.02265 20.4468 6.23483 5.87742 -2.71461 -1.54378 1 1
534 1 9.78161 18.6986 6.2606 3.00813 -0.00956549 -3.60345 1 1
535 1 9.77267 20.4775 4.40423 0.509341 -1.73893 2.16767 1 1
536 1 10.6507 19.5821 5.31271 -0.767761 2.23073 2.4416 1 1
537 1 10.6585 0.0215902 3.54216 -2.34694 -3.38099 -0.0674151 1 1
538 1 12.5277 19.5515 3.57506 0.310347 1.84418 0.679173 1 1
539 1 11.5467 18.698 4.4267 2.88529 1.19517 0.0427385 1 1
540 1 13.3979 18.6807 6.21513 -4.21483 2.03999 0.615503 1 1
541 1 13.3741 20.4704 4.45952 3.41708 0.715025 1.60841 1 1
542 1 16.131 17.7827 5.36493 4.76005 2.67628 -2.14167 1 1
543 1 14.2384 21.3707 3.55094 3.13986 -4.54322 -0.811085 1 1
544 1 14.2527 19.6216 5.38723 -6.18855 -0.766938 7.00971 1 1
545 1 16.023 19.6072 3.61145 3.31768 -1.9871 -6.6573 1 1
546 1 15.1282 18.6836 4.43158 0.599953 7.40053 6.19747 1 1
547 1 16.9551 18.723 6.26272 2.37163 -1.15262 -10.9981 1 1
548 1 16.9038 20.4971 4.48539 -5.50227 -0.718447 3.40693 1 1
549 1 17.7931 19.6078 5.37095 -0.489134 -2.16643 2.60647 1 1
550 1 17.8167 17.8185 3.5781 0.458842 1.0661 -1.522 1 1
551 1 19.5716 19.5996 3.61727 -5.70758 -2.69261 3.89497 1 1
552 1 18.6971 18.7089 4.50054 1.13895 -2.1262 -2.9542 1 1
553 1 18.7427 20.5045 6.28429 -9.25993 4.67103 2.27793 1 1
554 1 20.4464 18.724 6.27544 3.28762 -5.18506 0.400822 1 1
555 1 20.4747 20.5042 4.47523 -3.44549 5.50953 -6.62246 1 1
556 1 2.66175 0.903021 6.22784 -6.27096 -2.86238 -3.9676 1 1
557 1 0.855767 2.6502 6.23696 -9.12477 -1.75975 -1.47186 1 1
558 1 1.77306 1.80421 7.11321 -3.94978 0.763071 5.60041 1 1