ITEM: TIMESTEP
1200
ITEM: NUMBER OF ATOMS
2952
ITEM: BOX BOUNDS pp pp mm
0.0000000000000000e+00 2.1394294200000001e+01
0.0000000000000000e+00 2.1394294200000001e+01
-4.4571446250000002e-01 5.3485735500000004e+01
ITEM: ATOMS id type x y z vx vy vz v_is_diamond c_structure_type
1 1 0 0 0 0 0 0 1 3
2 1 1.78286 1.78286 0 0 0 0 1 3
3 1 0.891429 0.891429 0.891429 0 0 0 1 2
4 1 0.897859 2.65589 2.67529 4.24422 -7.6582 4.4375 1 1
5 1 2.68664 0.882972 2.65721 1.3666 -6.02745 -3.06412 1 1
6 1 2.67429 2.67429 0.891429 0 0 0 1 2
7 1 21.4116 1.74935 1.83921 5.8759 3.49574 1.2616 1 1
8 1 1.77842 -0.0045057 1.78231 -5.42742 -2.61346 -2.40274 1 1
9 1 1.78453 3.54442 1.77142 -0.857672 -0.650493 -6.43101 1 1
10 1 3.58073 1.75496 1.77753 3.06913 4.57366 4.04152 1 1
11 1 3.56572 0 0 0 0 0 1 3
12 1 5.34857 1.78286 0 0 0 0 1 3
13 1 4.45714 0.891429 0.891429 0 0 0 1 2
14 1 4.43405 2.67375 2.68539 -5.5185 12.487 -3.40654 1 1
15 1 6.24516 0.883154 2.67316 -4.55827 -2.49296 3.2002 1 1
16 1 6.24 2.67429 0.891429 0 0 0 1 2
17 1 7.15855 1.76837 1.80668 -3.72588 4.02124 -8.09491 1 1
18 1 7.13143 0 0 0 0 0 1 3
19 1 8.02286 0.891429 0.891429 0 0 0 1 2
20 1 8.03054 2.70362 2.68465 2.61862 5.55255 2.93261 1 1
21 1 8.91429 1.78286 0 0 0 0 1 3
22 1 9.79009 0.921642 2.70494 0.354989 -3.719 -6.9346 1 1
23 1 9.80572 2.67429 0.891429 0 0 0 1 2
24 1 8.90108 21.4225 1.77769 -3.69602 6.3486 -11.6032 1 1
25 1 10.7007 1.7587 1.78581 -6.78744 -6.09248 -6.53796 1 1
26 1 10.6971 0 0 0 0 0 1 3
27 1 12.48 1.78286 0 0 0 0 1 3
28 1 11.5886 0.891429 0.891429 0 0 0 1 2
29 1 11.6195 2.69076 2.66676 1.56531 -4.13289 -1.74449 1 1
30 1 13.4165 0.92336 2.7168 -3.52607 1.08777 1.76831 1 1
31 1 13.3714 2.67429 0.891429 0 0 0 1 2
32 1 14.2914 1.78851 1.7368 4.99309 -1.75981 -3.7791 1 1
33 1 14.2629 0 0 0 0 0 1 3
34 1 16.0457 1.78286 0 0 0 0 1 3
35 1 15.1543 0.891429 0.891429 0 0 0 1 2
36 1 15.1704 2.69261 2.62247 -2.1823 -1.72447 -8.31972 1 1
37 1 16.9196 0.868795 2.67135 10.6122 -8.23241 -0.941983 1 1
38 1 16.9371 2.67429 0.891429 0 0 0 1 2
39 1 16.0622 21.394 1.73357 1.47078 5.20951 10.6383 1 1
40 1 17.8282 1.80337 1.7501 -5.82246 -0.716599 -2.09698 1 1
41 1 17.8286 0 0 0 0 0 1 3
42 1 19.6114 1.78286 0 0 0 0 1 3
43 1 18.72 0.891429 0.891429 0 0 0 1 2
44 1 18.7018 2.70747 2.66719 -3.69711 -5.73045 0.0237759 1 1
45 1 20.4825 0.919537 2.67693 2.09697 6.01785 0.894393 1 1
46 1 20.5029 2.67429 0.891429 0 0 0 1 2
47 1 0 3.56572 0 0 0 0 1 3
48 1 1.78286 5.34857 0 0 0 0 1 3
49 1 0.891429 4.45714 0.891429 0 0 0 1 2
50 1 0.937678 6.23494 2.66104 -0.271589 -1.32191 -0.932485 1 1
51 1 2.66654 4.44403 2.70773 0.491058 2.28038 6.15464 1 1
52 1 2.67429 6.24 0.891429 0 0 0 1 2
53 1 3.55869 5.34277 1.79237 4.61177 -3.22964 3.77111 1 1
54 1 5.35369 3.58476 1.75484 3.79169 -8.73505 6.04758 1 1
55 1 3.56572 3.56572 0 0 0 0 1 3
56 1 5.34857 5.34857 0 0 0 0 1 3
57 1 4.45714 4.45714 0.891429 0 0 0 1 2
58 1 4.4755 6.2465 2.65043 5.54562 -6.70546 -3.47464 1 1
59 1 6.2509 4.49046 2.62479 -6.35516 -0.674823 -5.64133 1 1
60 1 6.24 6.24 0.891429 0 0 0 1 2
61 1 5.36456 7.12328 1.77712 6.45052 2.17872 -8.20697 1 1
62 1 7.11752 5.33682 1.75035 7.06422 -3.94926 -8.4615 1 1
63 1 7.13143 3.56572 0 0 0 0 1 3
64 1 8.92458 3.58142 1.77789 -3.53049 2.59693 6.22254 1 1
65 1 8.02286 4.45714 0.891429 0 0 0 1 2
66 1 8.0061 6.27537 2.62259 8.28047 -4.74019 -0.619595 1 1
67 1 8.91429 5.34857 0 0 0 0 1 3
68 1 9.80553 4.48386 2.67027 -2.52756 -0.198246 8.646 1 1
69 1 9.80572 6.24 0.891429 0 0 0 1 2
70 1 10.6966 5.36579 1.81436 -7.82246 -0.827429 -0.714061 1 1
71 1 12.4668 3.58937 1.78328 -3.80263 3.65396 -0.977039 1 1
72 1 10.6971 3.56572 0 0 0 0 1 3
73 1 12.48 5.34857 0 0 0 0 1 3
74 1 11.5886 4.45714 0.891429 0 0 0 1 2
75 1 11.561 6.27857 2.69619 -7.41051 1.31356 6.81732 1 1
76 1 13.3742 4.42088 2.64198 -5.62283 2.9015 -3.42198 1 1
77 1 13.3714 6.24 0.891429 0 0 0 1 2
78 1 14.2819 5.40064 1.76456 -0.17342 -1.96644 1.97184 1 1
79 1 16.0718 3.59384 1.79961 2.02082 -0.770589 -5.42122 1 1
80 1 14.2629 3.56572 0 0 0 0 1 3
81 1 16.0457 5.34857 0 0 0 0 1 3
82 1 15.1543 4.45714 0.891429 0 0 0 1 2
83 1 15.1626 6.26782 2.67503 -5.5175 3.08036 -6.67301 1 1
84 1 16.9909 4.4825 2.6871 -4.82811 -4.46886 1.14495 1 1
85 1 16.9371 6.24 0.891429 0 0 0 1 2
86 1 17.8489 5.355 1.78251 -5.80625 10.1205 -4.28317 1 1
87 1 19.6157 3.53931 1.77752 2.20785 1.98624 1.85654 1 1
88 1 0.00459454 5.31095 1.74661 0.87305 -2.17027 -0.935184 1 1
89 1 17.8286 3.56572 0 0 0 0 1 3
90 1 19.6114 5.34857 0 0 0 0 1 3
91 1 18.72 4.45714 0.891429 0 0 0 1 2
92 1 18.7481 6.27422 2.66158 -0.749401 3.85769 3.73166 1 1
93 1 20.5183 4.41553 2.69624 -3.2606 5.71447 -9.51733 1 1
94 1 20.5029 6.24 0.891429 0 0 0 1 2
95 1 19.6297 7.12942 1.77314 -6.39608 8.7287 4.02129 1 1
96 1 1.78713 7.14217 1.79899 -4.40802 2.44388 -0.570011 1 1
97 1 0 7.13143 0 0 0 0 1 3
98 1 0.891429 8.02286 0.891429 0 0 0 1 2
99 1 2.68759 8.05735 2.66543 -4.82867 2.98837 -8.07421 1 1
100 1 1.78286 8.91429 0 0 0 0 1 3
101 1 0.869789 9.82195 2.70912 1.92542 -0.292244 10.3329 1 1
102 1 2.67429 9.80572 0.891429 0 0 0 1 2
103 1 1.76411 10.6872 1.77842 -3.34436 3.85795 4.44506 1 1
104 1 3.54953 8.95653 1.78497 -2.48504 -1.52577 -2.96173 1 1
105 1 3.56572 7.13143 0 0 0 0 1 3
106 1 4.45714 8.02286 0.891429 0 0 0 1 2
107 1 6.23899 8.00749 2.66221 -3.68704 -1.78029 10.24 1 1
108 1 5.34857 8.91429 0 0 0 0 1 3
109 1 4.47016 9.85555 2.68364 -5.67547 0.788557 -1.43056 1 1
110 1 6.24 9.80572 0.891429 0 0 0 1 2
111 1 7.14168 8.88913 1.78317 8.27024 -0.991298 -5.72471 1 1
112 1 8.93294 7.1432 1.74448 5.27244 -8.14598 1.63478 1 1
113 1 7.13143 7.13143 0 0 0 0 1 3
114 1 8.02286 8.02286 0.891429 0 0 0 1 2
115 1 9.80299 7.98461 2.61871 -5.77283 6.36217 -6.92891 1 1
116 1 8.04158 9.77042 2.65363 6.97558 -4.44876 -2.54956 1 1
117 1 8.91429 8.91429 0 0 0 0 1 3
118 1 9.80572 9.80572 0.891429 0 0 0 1 2
119 1 10.7018 8.90839 1.79971 -1.70483 4.03513 -7.78865 1 1
120 1 12.5055 7.15244 1.79196 -9.14364 5.46617 -5.49978 1 1
121 1 10.6971 7.13143 0 0 0 0 1 3
122 1 11.5886 8.02286 0.891429 0 0 0 1 2
123 1 13.3723 8.04403 2.71039 0.0189266 4.20003 -6.68404 1 1
124 1 12.48 8.91429 0 0 0 0 1 3
125 1 11.6159 9.75526 2.70797 -2.13405 1.76328 1.91634 1 1
126 1 13.3714 9.80572 0.891429 0 0 0 1 2
127 1 12.4693 10.6985 1.78233 2.30811 0.99536 3.70859 1 1
128 1 16.0761 7.12071 1.81407 6.25615 -3.10541 -7.87099 1 1
129 1 14.2599 8.91328 1.79726 -2.66094 -4.49263 7.21757 1 1
130 1 14.2629 7.13143 0 0 0 0 1 3
131 1 15.1543 8.02286 0.891429 0 0 0 1 2
132 1 16.9131 8.07677 2.6921 -5.68798 2.39084 -0.360989 1 1
133 1 16.0457 8.91429 0 0 0 0 1 3
134 1 15.1283 9.80481 2.72381 -2.98099 3.25316 4.67016 1 1
135 1 16.9371 9.80572 0.891429 0 0 0 1 2
136 1 16.0874 10.6852 1.78444 5.90054 -4.39699 2.6612 1 1
137 1 17.8285 8.89259 1.82056 1.39396 -0.451398 4.05983 1 1
138 1 21.3665 8.9317 1.8004 1.31294 -0.489991 -3.2667 1 1
139 1 17.8286 7.13143 0 0 0 0 1 3
140 1 18.72 8.02286 0.891429 0 0 0 1 2
141 1 20.4874 8.05516 2.65562 2.43948 1.74537 -5.38003 1 1
142 1 19.6114 8.91429 0 0 0 0 1 3
143 1 18.7015 9.81512 2.68732 5.56104 9.66327 -3.37108 1 1
144 1 20.5029 9.80572 0.891429 0 0 0 1 2
145 1 0 10.6971 0 0 0 0 1 3
146 1 1.78286 12.48 0 0 0 0 1 3
147 1 0.891429 11.5886 0.891429 0 0 0 1 2
148 1 2.64283 11.5788 2.66089 6.28808 11.8753 3.02828 1 1
149 1 0.879069 13.38 2.67904 -1.71845 15.8743 -0.0937506 1 1
150 1 2.67429 13.3714 0.891429 0 0 0 1 2
151 1 21.4242 12.44 1.78698 3.89103 3.31552 -1.02226 1 1
152 1 5.34305 10.7261 1.79816 -7.58845 6.37488 -4.19501 1 1
153 1 3.51087 12.4673 1.82135 5.68933 0.232274 1.67811 1 1
154 1 3.56572 10.6971 0 0 0 0 1 3
155 1 5.34857 12.48 0 0 0 0 1 3
156 1 4.45714 11.5886 0.891429 0 0 0 1 2
157 1 6.2584 11.6086 2.6554 -2.39044 -2.43928 2.52679 1 1
158 1 4.43967 13.4112 2.72253 1.89094 2.09413 -4.59435 1 1
159 1 6.24 13.3714 0.891429 0 0 0 1 2
160 1 5.32985 14.278 1.78668 -2.21523 4.54482 5.25751 1 1
161 1 8.89554 10.7074 1.75403 5.14459 3.27927 7.16335 1 1
162 1 7.10144 12.4706 1.7889 -3.8494 2.12569 -0.641288 1 1
163 1 7.13143 10.6971 0 0 0 0 1 3
164 1 8.02286 11.5886 0.891429 0 0 0 1 2
165 1 8.91429 12.48 0 0 0 0 1 3
166 1 9.78848 11.5963 2.67846 -1.23851 4.41028 -5.39145 1 1
167 1 8.02204 13.3905 2.67744 -2.712 1.68333 4.81773 1 1
168 1 9.80572 13.3714 0.891429 0 0 0 1 2
169 1 10.7168 12.4576 1.77248 -0.754036 -3.28722 4.06431 1 1
170 1 10.6971 10.6971 0 0 0 0 1 3
171 1 12.48 12.48 0 0 0 0 1 3
172 1 11.5886 11.5886 0.891429 0 0 0 1 2
173 1 13.3456 11.5776 2.69377 -2.64725 -0.937103 -6.17981 1 1
174 1 11.6005 13.3194 2.64801 -2.50895 1.52429 -2.4863 1 1
175 1 13.3714 13.3714 0.891429 0 0 0 1 2
176 1 12.461 14.2389 1.72439 3.97931 -3.4719 2.98923 1 1
177 1 14.2457 12.5067 1.77891 -5.19913 -0.404659 -0.90151 1 1
178 1 14.2629 10.6971 0 0 0 0 1 3
179 1 16.0457 12.48 0 0 0 0 1 3
180 1 15.1543 11.5886 0.891429 0 0 0 1 2
181 1 16.9479 11.5885 2.70015 -4.18465 0.100831 -7.5686 1 1
182 1 15.1205 13.3913 2.70577 -3.26656 -5.14084 -3.56689 1 1
183 1 16.9371 13.3714 0.891429 0 0 0 1 2
184 1 17.8282 12.4959 1.81299 -7.3777 4.66546 2.84953 1 1
185 1 19.5939 10.7242 1.79345 -2.56713 -2.87775 6.33659 1 1
186 1 17.8286 10.6971 0 0 0 0 1 3
187 1 19.6114 12.48 0 0 0 0 1 3
188 1 18.72 11.5886 0.891429 0 0 0 1 2
189 1 20.5284 11.6123 2.68836 5.18797 -3.83155 -2.28194 1 1
190 1 18.6903 13.3744 2.65594 -2.66933 -1.98851 -5.02472 1 1
191 1 20.5029 13.3714 0.891429 0 0 0 1 2
192 1 19.6259 14.3165 1.74152 5.24131 -6.85175 -3.7954 1 1
193 1 1.79544 14.2851 1.84044 -5.75761 -1.12068 -2.5744 1 1
194 1 0 14.2629 0 0 0 0 1 3
195 1 1.78286 16.0457 0 0 0 0 1 3
196 1 0.891429 15.1543 0.891429 0 0 0 1 2
197 1 0.950839 16.9352 2.65352 14.5843 -2.41392 -3.5936 1 1
198 1 2.70942 15.1853 2.68056 4.42376 -2.08007 -1.10037 1 1
199 1 2.67429 16.9371 0.891429 0 0 0 1 2
200 1 0.0277685 16.0676 1.78902 0.167779 -10.2847 -8.09727 1 1
201 1 3.56329 16.0597 1.76098 -6.49695 4.82219 -1.31801 1 1
202 1 3.56572 14.2629 0 0 0 0 1 3
203 1 5.34857 16.0457 0 0 0 0 1 3
204 1 4.45714 15.1543 0.891429 0 0 0 1 2
205 1 4.49083 16.9246 2.64357 1.97817 1.1949 -7.53592 1 1
206 1 6.21346 15.1136 2.69597 4.68375 -13.8317 1.08947 1 1
207 1 6.24 16.9371 0.891429 0 0 0 1 2
208 1 7.11983 16.0226 1.77268 -2.81143 -1.77009 -2.55209 1 1
209 1 5.36922 17.8296 1.76567 7.9168 3.09174 5.0706 1 1
210 1 8.90948 14.2608 1.78679 -7.75865 4.76809 2.61098 1 1
211 1 7.13143 14.2629 0 0 0 0 1 3
212 1 8.02286 15.1543 0.891429 0 0 0 1 2
213 1 7.98338 16.9331 2.60213 -3.48286 -0.842265 1.10379 1 1
214 1 8.91429 16.0457 0 0 0 0 1 3
215 1 9.79289 15.1584 2.69857 2.70656 0.992936 1.02576 1 1
216 1 9.80572 16.9371 0.891429 0 0 0 1 2
217 1 8.87134 17.788 1.72809 6.80678 4.92808 -0.981993 1 1
218 1 10.6995 16.0147 1.8109 1.18762 -5.57719 7.13699 1 1
219 1 10.6971 14.2629 0 0 0 0 1 3
220 1 12.48 16.0457 0 0 0 0 1 3
221 1 11.5886 15.1543 0.891429 0 0 0 1 2
222 1 11.6023 16.9001 2.67413 1.98253 -1.17648 -0.270149 1 1
223 1 13.3672 15.1427 2.68883 -3.10897 5.40013 4.06794 1 1
224 1 13.3714 16.9371 0.891429 0 0 0 1 2
225 1 12.4665 17.7961 1.75802 -3.53949 3.61248 -5.84252 1 1
226 1 16.0151 14.2409 1.80281 -3.42922 2.71261 2.76262 1 1
227 1 14.2517 16.0229 1.7196 -3.62416 -1.43669 -3.05533 1 1
228 1 14.2629 14.2629 0 0 0 0 1 3
229 1 16.0457 16.0457 0 0 0 0 1 3
230 1 15.1543 15.1543 0.891429 0 0 0 1 2
231 1 15.1174 16.8926 2.66717 -7.37494 5.71393 -4.00668 1 1
232 1 16.9485 15.1844 2.64423 -0.985147 5.07323 -3.13452 1 1
233 1 16.9371 16.9371 0.891429 0 0 0 1 2
234 1 17.8091 16.0137 1.77215 1.55969 14.8819 4.36817 1 1
235 1 17.8286 14.2629 0 0 0 0 1 3
236 1 19.6114 16.0457 0 0 0 0 1 3
237 1 18.72 15.1543 0.891429 0 0 0 1 2
238 1 18.7004 16.952 2.63416 3.99769 -1.52344 -4.34087 1 1
239 1 20.5343 15.162 2.65063 -3.04098 4.11004 -4.22694 1 1
240 1 20.5029 16.9371 0.891429 0 0 0 1 2
241 1 19.6046 17.8412 1.717 0.640709 -1.22751 1.8287 1 1
242 1 1.78184 17.8164 1.77607 5.96097 -1.84586 -3.10708 1 1
243 1 0 17.8286 0 0 0 0 1 3
244 1 1.78286 19.6114 0 0 0 0 1 3
245 1 0.891429 18.72 0.891429 0 0 0 1 2
246 1 0.897875 20.4947 2.66563 9.03738 -6.05343 2.79132 1 1
247 1 2.67314 18.7384 2.66482 -2.31602 -10.0798 4.91359 1 1
248 1 2.67429 20.5029 0.891429 0 0 0 1 2
249 1 3.57579 19.6256 1.78876 5.89931 3.92098 6.92913 1 1
250 1 0.00554405 19.6089 1.79078 -5.48991 8.24303 1.98491 1 1
251 1 5.40351 21.3878 1.74746 1.13055 0.662215 -4.22788 1 1
252 1 3.56572 17.8286 0 0 0 0 1 3
253 1 5.34857 19.6114 0 0 0 0 1 3
254 1 4.45714 18.72 0.891429 0 0 0 1 2
255 1 4.47825 20.5105 2.69427 -9.41846 -1.75651 2.0906 1 1
256 1 6.21823 18.7463 2.65504 -5.57411 2.75259 3.21091 1 1
257 1 6.24 20.5029 0.891429 0 0 0 1 2
258 1 7.15168 19.6547 1.77086 -0.0597571 6.95487 1.98805 1 1
259 1 7.13143 17.8286 0 0 0 0 1 3
260 1 8.02286 18.72 0.891429 0 0 0 1 2
261 1 8.03251 20.5601 2.66015 -3.94614 2.43708 4.07248 1 1
262 1 8.91429 19.6114 0 0 0 0 1 3
263 1 9.80087 18.7221 2.65543 1.24215 -0.155314 -2.52746 1 1
264 1 9.80572 20.5029 0.891429 0 0 0 1 2
265 1 10.7387 19.6197 1.77462 -0.833818 -1.59587 3.67648 1 1
266 1 12.4642 -0.0221652 1.79481 3.92516 -1.64918 -2.78592 1 1
267 1 10.6971 17.8286 0 0 0 0 1 3
268 1 12.48 19.6114 0 0 0 0 1 3
269 1 11.5886 18.72 0.891429 0 0 0 1 2
270 1 11.5694 20.5137 2.68897 -0.159221 2.34462 8.65716 1 1
271 1 13.3265 18.7294 2.65301 -3.19865 -7.64175 -2.57533 1 1
272 1 13.3714 20.5029 0.891429 0 0 0 1 2
273 1 14.2185 19.6596 1.76138 1.36185 -5.0552 -11.919 1 1
274 1 16.0155 17.8455 1.79532 2.47846 5.30164 -3.26123 1 1
275 1 14.2629 17.8286 0 0 0 0 1 3
276 1 16.0457 19.6114 0 0 0 0 1 3
277 1 15.1543 18.72 0.891429 0 0 0 1 2
278 1 15.1708 20.5417 2.64929 -7.73512 -0.0146654 -2.11273 1 1
279 1 16.9041 18.7557 2.66814 -12.2161 2.14929 0.769055 1 1
280 1 16.9371 20.5029 0.891429 0 0 0 1 2
281 1 19.6342 21.3993 1.77144 -1.21863 8.66084 8.00015 1 1
282 1 17.8227 19.6385 1.79895 -0.939008 1.57994 6.37078 1 1
283 1 17.8286 17.8286 0 0 0 0 1 3
284 1 19.6114 19.6114 0 0 0 0 1 3
285 1 18.72 18.72 0.891429 0 0 0 1 2
286 1 18.6994 20.5219 2.66486 5.81311 -3.83487 -1.91937 1 1
287 1 20.5046 18.7116 2.65763 -1.82581 -12.7376 2.04489 1 1
288 1 20.5029 20.5029 0.891429 0 0 0 1 2
289 1 1.76366 1.79155 3.55115 -9.90936 11.4975 -1.50224 1 1
290 1 0.917046 0.844253 4.42676 -3.88923 -1.39089 -6.18389 1 1
291 1 2.67728 2.69401 4.44953 -6.60456 -10.7215 -0.701378 1 1
292 1 1.80291 -0.062856 5.30868 1.20915 -8.55742 -7.66187 1 1
293 1 1.78028 3.57649 5.34044 5.02117 -1.05328 -1.69279 1 1
294 1 21.406 1.75747 5.31705 6.378 1.9998 -1.62528 1 1
295 1 0.012259 21.3584 3.52813 -9.83057 -3.79406 9.13484 1 1
296 1 3.6105 1.76023 5.36829 6.34406 -1.31381 -3.27235 1 1
297 1 5.349 1.78552 3.56515 5.08201 -5.58166 -0.470924 1 1
298 1 4.47309 0.869181 4.48435 3.57407 3.57325 6.8802 1 1
299 1 6.21747 0.864237 6.27608 5.24304 5.33213 -1.66579 1 1
300 1 6.25062 2.67611 4.43579 0.092066 0.442779 8.01271 1 1
301 1 3.57776 0.0112988 3.54246 -1.47452 -7.60733 -10.3246 1 1
302 1 7.15095 -0.0217936 3.58325 2.62077 -3.76025 1.4218 1 1
303 1 5.30211 21.3776 5.34193 2.799 0.491973 -6.87453 1 1
304 1 7.15939 3.60834 3.52984 4.06874 2.59644 -4.3987 1 1
305 1 7.1059 1.78937 5.38609 5.17309 -2.00612 4.17426 1 1
306 1 8.89421 1.79039 3.60724 0.165698 -1.01666 -3.36337 1 1
307 1 8.01625 0.863376 4.47387 -0.0228469 -2.17238 5.84183 1 1
308 1 8.01961 2.70876 6.25782 3.3454 4.6293 -3.23133 1 1
309 1 9.84848 0.853432 6.23648 -3.21246 4.14486 3.58407 1 1
310 1 9.8112 2.63603 4.50547 -5.9074 -8.3047 2.25583 1 1
311 1 10.7273 1.78612 5.34741 1.04778 -5.15698 1.51816 1 1
312 1 12.5214 1.81712 3.55581 1.74223 -7.41737 -0.271119 1 1
313 1 11.6447 0.934028 4.45007 -2.99242 1.24038 1.3766 1 1
314 1 11.625 2.70307 6.20877 2.62225 -0.446005 -7.202 1 1
315 1 13.3978 2.68328 4.39383 -5.27406 -4.0124 -2.60173 1 1
316 1 13.4042 0.915442 6.21633 -0.141537 -10.1947 3.85615 1 1
317 1 12.4953 3.56182 5.30383 1.30383 -0.529265 7.43914 1 1
318 1 14.3484 1.80825 5.31493 3.07823 -2.56174 -11.948 1 1
319 1 12.4984 -0.00577969 5.34321 -4.73956 -4.05231 0.953077 1 1
320 1 14.2882 3.54052 3.49123 3.16945 -1.20891 0.638186 1 1
321 1 16.0751 1.79909 3.51378 5.22943 0.684981 6.62378 1 1
322 1 15.1953 0.923815 4.43398 -2.90479 -5.7813 0.899925 1 1
323 1 15.182 2.69051 6.20308 -7.94169 -4.28946 -3.74734 1 1
324 1 16.9153 2.67911 4.43946 -2.66464 1.29138 4.36002 1 1
325 1 17.8824 1.74222 5.27455 -6.70463 -0.459687 -5.68039 1 1
326 1 16.0837 0.00991712 5.30221 -11.1557 -1.52814 -7.15766 1 1
327 1 19.6021 1.80776 3.54309 6.65424 4.95419 -8.16308 1 1
328 1 18.7405 0.88682 4.42187 0.954312 -7.36083 3.8368 1 1
329 1 20.5013 2.67635 4.46627 -0.255994 -0.385297 -5.64739 1 1
330 1 17.8399 -0.00679793 3.51835 -8.10437 -1.11486 -9.21801 1 1
331 1 19.6064 0.0342558 5.32356 3.74191 1.43502 -2.09868 1 1
332 1 0.0473213 3.57354 3.53663 2.3313 -0.955724 3.05435 1 1
333 1 1.80757 5.31492 3.57647 -0.859206 -8.34853 0.19583 1 1
334 1 0.926911 4.43708 4.46079 0.792819 0.212517 0.849686 1 1
335 1 2.67643 4.45313 6.20986 -5.03305 7.10988 -5.71223 1 1
336 1 2.74774 6.23442 4.46055 7.32193 1.15356 0.184526 1 1
337 1 3.56944 3.57316 3.56805 -1.26275 -0.401509 -5.05068 1 1
338 1 0.0365753 5.39544 5.34595 -2.93709 -3.2595 0.502151 1 1
339 1 3.61398 5.33494 5.34572 -3.61445 -0.845989 -0.288024 1 1
340 1 5.3538 3.55234 5.28048 -4.31352 0.203371 7.21983 1 1
341 1 5.35587 5.36703 3.50705 -2.73423 0.831895 -0.576725 1 1
342 1 4.42985 4.48189 4.44468 6.84214 0.334321 0.767783 1 1
343 1 4.43885 6.2407 6.20416 -4.00111 -4.87691 -2.65276 1 1
344 1 6.20086 6.24773 4.41997 -10.7383 -6.32144 -1.57122 1 1
345 1 7.09781 5.34256 5.29495 5.94233 1.81482 -4.19401 1 1
346 1 5.33575 7.14311 5.30805 2.24507 -9.2003 -7.3413 1 1
347 1 6.23068 4.4306 6.22554 -0.0148382 -2.14977 -4.09388 1 1
348 1 8.90753 3.55116 5.37291 1.74517 0.220833 -2.02994 1 1
349 1 10.7581 3.5547 3.60115 -3.97724 -3.62853 4.4933 1 1
350 1 8.91785 5.40278 3.56543 6.88214 -0.541326 6.47519 1 1
351 1 8.03384 4.48068 4.43168 -7.60391 1.8281 -6.56021 1 1
352 1 8.01956 6.23694 6.2039 -6.52203 3.34461 -4.33273 1 1
353 1 9.7975 4.45405 6.26505 -3.72501 -0.36241 3.56643 1 1
354 1 9.81942 6.30802 4.45617 -0.622207 2.84553 -6.74161 1 1
355 1 10.7071 5.41199 5.33772 -0.16694 -1.45514 3.31601 1 1
356 1 12.4971 5.35185 3.5342 0.936823 11.1892 2.81607 1 1
357 1 11.5981 4.46221 4.45996 -1.54553 4.59091 2.51818 1 1
358 1 13.3817 6.26879 4.47333 1.57505 0.289733 -5.34177 1 1
359 1 14.2647 5.35016 5.3243 4.31687 2.24335 -5.37352 1 1
360 1 16.1277 3.58012 5.36249 9.52406 -2.53633 -6.59973 1 1
361 1 17.8123 3.5925 3.53556 4.42727 7.18905 1.15628 1 1
362 1 16.0906 5.39513 3.5739 2.90427 -2.8231 -6.17 1 1
363 1 15.1999 4.47383 4.45673 -1.28026 7.51842 -8.2879 1 1
364 1 16.9806 6.27404 4.4766 -3.18533 5.66256 -2.45769 1 1
365 1 16.9804 4.45528 6.27855 -6.67872 7.42957 -7.01856 1 1
366 1 16.0974 7.13374 5.3596 0.11724 -5.49642 5.25503 1 1
367 1 15.2009 6.23849 6.2286 -5.72692 -4.69844 3.77198 1 1
368 1 19.5887 3.54749 5.34023 1.29021 -1.98023 3.48218 1 1
369 1 17.8466 5.33562 5.33101 -2.09533 -4.32063 0.153722 1 1
370 1 19.6861 5.3439 3.57412 -5.99156 -0.129738 4.10831 1 1
371 1 18.7581 4.47409 4.44109 -0.348726 9.39675 -4.70599 1 1
372 1 20.5224 4.44903 6.25754 0.362682 -1.14553 -2.79191 1 1
373 1 20.5405 6.25202 4.45261 6.28814 4.23954 3.79068 1 1
374 1 19.6227 7.15266 5.3736 1.94364 -2.92724 0.683547 1 1
375 1 0.0120165 7.13786 3.5713 -5.99202 2.51491 8.32318 1 1
376 1 1.80064 7.09279 5.34014 -1.30807 -1.16051 -13.3177 1 1
377 1 1.8184 8.91577 3.59228 4.40749 -1.86116 -3.1938 1 1
378 1 0.896063 8.04397 4.43563 5.22012 4.085 -1.81311 1 1
379 1 2.71717 8.06382 6.20503 1.18595 -5.5863 4.59782 1 1
380 1 0.898792 9.78166 6.25 -3.0579 3.68728 -2.9419 1 1
381 1 2.64288 9.80835 4.44488 -1.42059 2.14443 3.32692 1 1
382 1 21.3621 8.92399 5.37637 7.99888 -5.86925 3.36168 1 1
383 1 1.8049 10.7013 5.31802 -0.28297 2.44467 -7.68862 1 1
384 1 3.61207 7.13959 3.58238 8.2842 6.63656 -0.23386 1 1
385 1 7.17617 7.12375 3.5246 1.74806 3.54944 6.10737 1 1
386 1 3.54857 10.7377 3.54013 2.3908 3.23204 -4.9334 1 1
387 1 3.56056 8.95755 5.316 1.93777 -6.14361 -5.82501 1 1
388 1 5.36954 8.93847 3.58117 -2.5334 0.562643 -1.8326 1 1
389 1 4.46006 7.99075 4.46129 -7.78355 -0.280649 -4.54849 1 1
390 1 4.46845 9.82323 6.21909 -5.38756 6.48139 -3.87465 1 1
391 1 6.25963 9.82149 4.4875 2.69168 4.26764 1.19971 1 1
392 1 8.9101 7.14892 5.3135 5.12117 2.63158 1.59361 1 1
393 1 7.10257 8.89567 5.33055 0.105587 -7.10591 -1.89183 1 1
394 1 8.91619 8.86184 3.52156 -1.35481 1.46008 1.93671 1 1
395 1 8.01331 8.01057 4.45206 2.91721 -4.75208 2.42051 1 1
396 1 9.78027 9.77661 4.40944 0.751788 0.0898702 -6.57742 1 1
397 1 10.6558 8.91005 5.34202 -4.80931 -4.39253 4.2732 1 1
398 1 10.6998 10.7059 3.58574 4.63652 -0.107094 0.32043 1 1
399 1 9.78716 8.03599 6.21085 3.76145 -0.512217 5.65815 1 1
400 1 12.447 7.17632 5.34 -8.31318 -9.43222 -3.58199 1 1
401 1 10.7028 7.14884 3.57936 4.0454 4.40885 0.167082 1 1
402 1 12.4808 8.91834 3.60089 -4.89184 -0.273012 -2.17388 1 1
403 1 11.5451 8.02877 4.4446 2.66283 -0.902015 -1.27437 1 1
404 1 13.4135 9.77381 4.46019 3.2572 1.25178 2.29012 1 1
405 1 14.282 7.11252 3.56971 1.63527 0.906351 -1.31071 1 1
406 1 14.2973 8.92528 5.37993 -1.86998 -3.86528 -1.97793 1 1
407 1 17.8584 7.11235 3.53622 8.45108 -1.29052 -5.42826 1 1
408 1 16.0804 8.91959 3.58018 2.61247 -0.0576759 2.7158 1 1
409 1 15.2054 8.03274 4.44142 -7.23209 -6.28901 -4.69457 1 1
410 1 16.9687 9.8129 4.46755 3.97924 -3.32065 -6.98051 1 1
411 1 16.0157 10.7082 5.32028 -0.973871 -0.460745 1.91524 1 1
412 1 16.9544 7.98523 6.23797 -1.01214 -2.6709 2.43744 1 1
413 1 17.8709 8.92773 5.36538 -3.24442 4.05576 -4.87512 1 1
414 1 19.5944 8.9417 3.5685 -3.22326 -7.77211 4.22506 1 1
415 1 18.7322 8.00473 4.46426 -4.69372 -3.08254 -0.381674 1 1
416 1 18.7293 9.79813 6.25204 -7.48479 -0.186554 -8.60558 1 1
417 1 20.5108 9.85231 4.46104 -0.997751 -3.30112 -4.11284 1 1
418 1 20.475 8.00862 6.24128 -1.15871 5.39542 -4.91582 1 1
419 1 19.5895 10.7105 5.324 -2.30967 -9.37513 2.07313 1 1
420 1 21.3819 10.6824 3.58766 -0.174325 -5.81433 2.30305 1 1
421 1 1.71646 12.4889 3.58647 -0.809661 2.21488 7.27292 1 1
422 1 0.879572 11.575 4.44581 2.77358 4.22479 1.36518 1 1
423 1 2.65423 11.5925 6.16622 -2.06654 4.83894 -2.19988 1 1
424 1 0.889551 13.4299 6.25002 3.02722 1.42985 -5.95574 1 1
425 1 2.66757 13.3576 4.48522 14.2175 -4.55136 -1.61972 1 1
426 1 21.3664 12.4849 5.3194 1.68418 4.2352 2.08957 1 1
427 1 5.32598 10.7157 5.3229 2.79611 1.07289 -9.77496 1 1
428 1 3.5618 14.2731 3.55086 5.87444 5.66795 -3.28589 1 1
429 1 3.58588 12.4677 5.3493 1.4507 -2.50056 1.43043 1 1
430 1 5.37255 12.5017 3.56894 9.4478 5.05704 -11.4545 1 1
431 1 4.45079 11.6388 4.40924 7.09401 1.98329 -3.46406 1 1
432 1 6.25765 13.3609 4.47787 -0.843693 1.84531 7.29986 1 1
433 1 7.15336 14.2617 3.55982 -2.30476 0.172575 -1.91693 1 1
434 1 6.20853 11.5689 6.24989 -10.3842 4.99474 5.65 1 1
435 1 7.10752 10.6893 3.57032 3.75239 11.5353 -4.3689 1 1
436 1 7.10615 12.4862 5.33951 6.91864 5.643 0.993442 1 1
437 1 8.89752 10.661 5.30759 3.01697 2.07502 1.57965 1 1
438 1 8.88472 12.4921 3.57469 4.95185 -10.7078 -4.57454 1 1
439 1 7.97708 11.5786 4.43994 -8.9865 -3.1061 -13.642 1 1
440 1 9.7833 11.5488 6.22773 -2.05727 -5.27896 10.5785 1 1
441 1 8.01602 13.402 6.2539 6.64824 6.33978 -6.68788 1 1
442 1 9.81141 13.3225 4.50289 1.76192 -3.41886 2.65555 1 1
443 1 10.7214 14.1878 3.56308 -6.61453 -1.50315 -0.0572351 1 1
444 1 12.5485 10.6411 5.38402 7.04557 -1.78654 9.52084 1 1
445 1 10.6921 12.3662 5.34203 -10.4412 -3.16571 -3.03125 1 1
446 1 12.4739 12.4492 3.59931 6.57049 4.68244 6.44187 1 1
447 1 11.6471 11.5496 4.48253 -1.6043 -3.99761 -1.66468 1 1
448 1 13.433 11.5459 6.24219 2.15878 -2.31255 -2.47257 1 1
449 1 11.6258 13.2944 6.23895 -1.38088 -3.12839 -2.63459 1 1
450 1 13.3826 13.3549 4.49376 6.94947 0.48799 2.58491 1 1
451 1 14.2678 10.716 3.58011 1.53581 2.78525 -0.935383 1 1
452 1 14.2709 12.4557 5.36361 -8.7881 -0.63458 -3.43839 1 1
453 1 16.0407 12.5199 3.60288 6.8861 2.89295 -0.124024 1 1
454 1 15.1522 11.5952 4.45239 4.37439 3.95184 -6.41923 1 1
455 1 16.925 11.5936 6.2099 -0.234304 6.10316 -3.95902 1 1
456 1 16.8927 13.3904 4.47732 3.87459 0.0244881 0.241162 1 1
457 1 17.7973 12.5083 5.31749 -5.35718 -1.96446 -3.87034 1 1
458 1 15.1643 13.3717 6.24261 8.64226 -2.35818 -1.21722 1 1
459 1 17.7924 10.7181 3.58042 0.362558 -1.46587 -0.472565 1 1
460 1 19.5686 12.5213 3.57726 1.80236 -6.01572 2.8975 1 1
461 1 18.6667 11.6122 4.47264 -8.28801 -0.556634 -1.00832 1 1
462 1 18.7035 13.3643 6.21822 1.05068 -0.897567 5.48301 1 1
463 1 20.4684 13.3713 4.47188 3.61257 -2.70475 -6.35723 1 1
464 1 20.4882 11.5933 6.20729 7.74732 1.09937 -4.00306 1 1
465 1 1.76351 14.2638 5.34697 -6.79036 -7.64226 -0.574929 1 1
466 1 1.84061 16.0374 3.5607 -2.05319 3.20616 5.65357 1 1
467 1 0.938385 15.1344 4.49648 -6.63658 -6.81467 4.63993 1 1
468 1 2.70237 15.1005 6.23675 6.66911 -6.85365 0.178664 1 1
469 1 2.67087 16.9481 4.3911 1.18343 -5.68249 1.39862 1 1
470 1 0.0399154 15.9913 5.33462 -1.64936 -1.19552 3.42395 1 1
471 1 -0.0206991 14.2764 3.58913 -8.25432 3.21984 -2.14359 1 1
472 1 1.80585 17.8543 5.3273 -2.3372 -2.95941 1.7107 1 1
473 1 5.36557 14.2776 5.35022 -4.65177 2.04191 -0.86913 1 1
474 1 3.58741 16.0441 5.35627 -2.61976 -7.08977 -8.91004 1 1
475 1 5.32429 16.0233 3.55514 -8.27241 -3.77698 -3.8481 1 1
476 1 4.47135 15.1426 4.47302 -4.80139 1.12441 -5.71173 1 1
477 1 4.49323 16.934 6.25259 -5.57526 -3.38879 -0.118593 1 1
478 1 6.26898 15.1789 6.18736 -2.8793 -2.86502 -4.09695 1 1
479 1 6.24503 16.9484 4.45669 5.04072 4.69871 -11.3181 1 1
480 1 7.1562 16.0863 5.34599 -8.69545 -6.96278 -2.71888 1 1
481 1 8.94717 14.2732 5.38989 0.831628 -0.885079 -0.348876 1 1
482 1 8.88217 16.0799 3.62048 -3.36835 6.43165 2.52383 1 1
483 1 8.05949 15.1708 4.47626 -0.371983 -0.0229867 4.78024 1 1
484 1 8.05744 16.9821 6.2548 -1.68602 2.2759 -0.546359 1 1
485 1 9.84517 15.142 6.25452 4.03435 3.27759 2.08127 1 1
486 1 9.80962 16.9581 4.48249 -6.35118 0.189448 5.40073 1 1
487 1 10.7494 16.052 5.33616 -10.1427 5.92438 -8.7089 1 1
488 1 8.94574 17.8687 5.31904 -0.113773 -3.66259 0.144188 1 1
489 1 10.7213 17.8137 3.58753 -0.878592 5.22855 -7.44288 1 1
490 1 12.5008 14.2035 5.38821 5.45323 -8.28127 -2.24003 1 1
491 1 12.5042 16.0492 3.5668 0.960436 -1.68813 -11.8584 1 1
492 1 11.6275 15.1022 4.47372 2.00099 -2.22669 -4.92951 1 1
493 1 11.6101 16.9772 6.26813 0.3066 -2.36917 -12.6251 1 1
494 1 13.375 16.941 4.44707 -6.69227 4.86927 -6.48651 1 1
495 1 13.4119 15.106 6.25202 -1.85809 -2.866 -4.08892 1 1
496 1 12.5083 17.8692 5.34843 4.82781 -6.0048 2.7434 1 1
497 1 14.2264 14.2784 3.58645 -1.89815 -8.8293 2.40146 1 1
498 1 16.0342 14.291 5.36765 0.0899048 -3.00852 1.35409 1 1
499 1 17.8118 14.2703 3.52158 -1.55302 3.11419 12.4059 1 1
500 1 14.2392 16.0329 5.31094 -0.745539 5.04761 -0.937903 1 1
501 1 14.248 17.8298 3.53953 -1.14696 -1.36419 3.31593 1 1
502 1 16.0102 16.059 3.5365 3.67757 1.38964 2.14256 1 1
503 1 15.1601 15.164 4.46197 2.47741 4.7575 -1.60256 1 1
504 1 16.9334 16.9571 4.48343 -1.53558 6.64681 6.91869 1 1
505 1 16.9053 15.1606 6.2431 -3.68945 7.23654 0.564554 1 1
506 1 17.7975 16.0438 5.35168 9.60928 0.0337416 5.58686 1 1
507 1 19.6015 14.2656 5.33048 -2.74637 -4.63449 -7.94665 1 1
508 1 19.6238 16.0732 3.54256 1.51492 -0.20775 -7.4 1 1
509 1 18.6845 15.1561 4.40906 5.36434 -0.640506 3.7011 1 1
510 1 20.5254 16.9338 4.43713 5.23968 -5.86144 -0.231211 1 1
511 1 19.5908 17.8218 5.35149 -12.7142 1.3134 4.14949 1 1
512 1 20.5008 15.1831 6.24601 -1.39156 -2.95783 -2.96247 1 1
513 1 1.79774 19.6091 3.55668 -1.48962 0.843213 9.84191 1 1
514 1 0.935544 18.7343 4.44598 4.27916 1.33876 0.889893 1 1
515 1 0.871732 20.4913 6.2629 -0.45507 -0.638815 -1.42844 1 1
516 1 2.70786 20.497 4.42969 -2.59854 -5.84271 0.509161 1 1
517 1 0.0160339 17.8787 3.59215 -4.73936 -4.55736 -2.81872 1 1
518 1 21.4272 19.5795 5.32929 4.15837 -0.391096 -2.25764 1 1
519 1 2.68527 18.7366 6.25653 11.1619 -3.64966 -2.73661 1 1
520 1 5.38572 17.8155 5.3192 -0.780452 5.7249 5.55488 1 1
521 1 3.5781 17.8316 3.50881 4.58746 -4.2766 1.49502 1 1
522 1 3.53392 19.6552 5.36509 2.59887 5.45446 10.9539 1 1
523 1 5.36096 19.611 3.54724 -0.131943 5.46728 -0.81984 1 1
524 1 4.4473 18.7099 4.44119 1.70846 9.7581 -5.11184 1 1
525 1 4.42323 20.5002 6.2701 1.88323 3.50256 2.56675 1 1
526 1 6.23916 18.7078 6.25144 -5.72886 2.60653 0.0550235 1 1
527 1 6.2547 20.5083 4.47919 4.45664 -3.90344 -4.57353 1 1
528 1 7.11757 17.8537 3.53265 4.91233 0.373408 2.0394 1 1
529 1 7.1618 19.6208 5.33819 -4.44261 2.72793 -8.27131 1 1
530 1 8.94992 0.0316341 5.37246 -0.486355 -2.69645 6.2399 1 1
531 1 8.90978 19.7073 3.55457 2.71716 -4.07729 2.15941 1 1
532 1 8.03071 18.7395 4.45135 -1.90255 0.401127 -1.89218 1 1
533 1 8.03473 20.4993 6.30774 -0.232513 -2.88826 -5.1928 1 1
534 1 9.79681 18.7327 6.26187 -3.92112 -3.73694 -7.8782 1 1
535 1 9.85113 20.5377 4.47997 -0.610033 -8.33991 -3.06213 1 1
536 1 10.6941 19.6062 5.34353 -5.50078 -2.55328 -7.45109 1 1
537 1 10.7406 0.0306608 3.58363 -0.930555 -2.44203 4.1045 1 1
538 1 12.5122 19.5982 3.57457 2.1206 -7.07443 -1.79039 1 1
539 1 11.5799 18.7598 4.44682 0.970038 -2.57874 1.1139 1 1
540 1 13.3934 18.7403 6.23505 5.42489 -0.701506 -3.64675 1 1
541 1 13.37 20.4877 4.4436 -3.47743 0.627252 -5.01748 1 1
542 1 16.0757 17.8079 5.35485 6.89466 1.03393 -4.21931 1 1
543 1 14.287 0.022195 3.55919 -0.493387 1.8411 -4.08529 1 1
544 1 14.2533 19.6072 5.34955 -2.32575 -4.04477 -0.404819 1 1
545 1 16.0391 19.5803 3.55638 4.80268 2.70352 -4.10905 1 1
546 1 15.1447 18.6539 4.40098 2.492 0.719361 -2.68505 1 1
547 1 16.9483 18.7152 6.21492 3.63035 4.29993 -10.3536 1 1
548 1 16.9577 20.468 4.43405 -2.56479 -3.22735 -4.36857 1 1
549 1 17.8242 19.5879 5.31323 1.31113 7.48084 2.62826 1 1
550 1 17.7808 17.8659 3.53787 -1.47687 -0.174676 -3.51741 1 1
551 1 19.5687 19.6049 3.55412 -2.86345 0.990199 3.32898 1 1
552 1 18.7319 18.7462 4.44965 -6.02898 -4.02115 2.04866 1 1
553 1 18.7422 20.4961 6.21348 -3.03456 -0.362155 4.09574 1 1
554 1 20.4747 18.7083 6.21836 -0.290878 -4.53772 4.04644 1 1
555 1 20.4934 20.4761 4.46611 7.57684 -0.334798 1.41051 1 1