ITEM: TIMESTEP
50
ITEM: NUMBER OF ATOMS
2953
ITEM: BOX BOUNDS pp pp mm
0.0000000000000000e+00 2.1394294200000001e+01
0.0000000000000000e+00 2.1394294200000001e+01
-4.4571446250000002e-01 5.3485735500000004e+01
ITEM: ATOMS id type x y z vx vy vz v_is_diamond c_structure_type
1 1 0 0 0 0 0 0 1 3
2 1 0.04995 1.78953 1.77634 -5.1885 2.37265 -1.20796 1 1
3 1 1.79837 0.0276413 1.79285 0.946268 -0.856574 5.5827 1 1
4 1 1.78286 1.78286 0 0 0 0 1 3
5 1 0.891429 0.891429 0.891429 0 0 0 1 2
6 1 0.900706 2.72353 2.62746 1.06898 0.334435 -1.2408 1 1
7 1 2.63283 0.960973 2.66581 0.856257 4.36108 -4.43316 1 1
8 1 2.67429 2.67429 0.891429 0 0 0 1 2
9 1 3.56572 0 0 0 0 0 1 3
10 1 3.56956 1.80892 1.76921 1.44067 3.48589 -1.2235 1 1
11 1 5.29188 0.00520359 1.84293 -2.59469 7.6469 6.20719 1 1
12 1 5.34857 1.78286 0 0 0 0 1 3
13 1 4.45714 0.891429 0.891429 0 0 0 1 2
14 1 4.46079 2.66409 2.7743 0.390884 -7.65877 -4.9299 1 1
15 1 6.20755 0.914593 2.66906 -3.18719 6.17047 -0.848152 1 1
16 1 6.24 2.67429 0.891429 0 0 0 1 2
17 1 7.13143 0 0 0 0 0 1 3
18 1 7.10261 1.77314 1.75718 -7.93005 3.59916 4.28138 1 1
19 1 8.91211 0.0221381 1.73993 -2.76658 -6.35908 -0.826708 1 1
20 1 8.91429 1.78286 0 0 0 0 1 3
21 1 8.02286 0.891429 0.891429 0 0 0 1 2
22 1 7.96437 2.66325 2.65779 -0.845379 -0.711152 0.172201 1 1
23 1 9.76201 0.87637 2.64682 1.35221 -0.626237 -0.761881 1 1
24 1 9.80572 2.67429 0.891429 0 0 0 1 2
25 1 10.6971 0 0 0 0 0 1 3
26 1 10.6943 1.76007 1.76443 1.47156 1.8059 -0.0444421 1 1
27 1 12.4533 21.3926 1.8278 1.19588 -0.882032 -0.905225 1 1
28 1 12.48 1.78286 0 0 0 0 1 3
29 1 11.5886 0.891429 0.891429 0 0 0 1 2
30 1 11.5487 2.64804 2.66018 0.392144 6.72744 -1.20303 1 1
31 1 13.3677 0.857835 2.71865 11.578 -0.824657 6.24451 1 1
32 1 13.3714 2.67429 0.891429 0 0 0 1 2
33 1 14.2629 0 0 0 0 0 1 3
34 1 14.2321 1.78294 1.82827 -3.97236 -6.40658 -2.02142 1 1
35 1 16.0438 0.0169557 1.80608 -0.16663 -2.1849 7.02539 1 1
36 1 16.0457 1.78286 0 0 0 0 1 3
37 1 15.1543 0.891429 0.891429 0 0 0 1 2
38 1 15.1659 2.66132 2.70226 -1.93681 1.00302 -1.18991 1 1
39 1 16.934 0.874262 2.65479 -1.77492 3.50755 3.90208 1 1
40 1 16.9371 2.67429 0.891429 0 0 0 1 2
41 1 17.8286 0 0 0 0 0 1 3
42 1 17.8078 1.76167 1.75334 -2.96255 -0.777604 -2.61113 1 1
43 1 19.5945 0.0435616 1.73678 7.22746 1.56169 9.83338 1 1
44 1 19.6114 1.78286 0 0 0 0 1 3
45 1 18.72 0.891429 0.891429 0 0 0 1 2
46 1 18.7329 2.66749 2.66891 2.00645 3.14801 0.0452307 1 1
47 1 20.5319 0.912751 2.65516 -4.72423 8.98595 -3.42865 1 1
48 1 20.5029 2.67429 0.891429 0 0 0 1 2
49 1 0 3.56572 0 0 0 0 1 3
50 1 0.0136341 5.36335 1.78238 2.12386 3.10963 -3.07145 1 1
51 1 1.83416 3.5964 1.78665 -3.81222 0.279739 -1.08342 1 1
52 1 1.78286 5.34857 0 0 0 0 1 3
53 1 0.891429 4.45714 0.891429 0 0 0 1 2
54 1 0.915922 6.24955 2.69992 1.76968 -1.11216 4.54396 1 1
55 1 2.72711 4.46055 2.69277 -8.14797 2.07534 4.0302 1 1
56 1 2.67429 6.24 0.891429 0 0 0 1 2
57 1 3.56572 3.56572 0 0 0 0 1 3
58 1 3.58437 5.36427 1.78797 -1.38618 -7.57414 -0.886583 1 1
59 1 5.32823 3.57197 1.79919 -2.09581 0.468584 0.0104702 1 1
60 1 5.34857 5.34857 0 0 0 0 1 3
61 1 4.45714 4.45714 0.891429 0 0 0 1 2
62 1 4.46739 6.24632 2.6933 6.0837 -0.0635929 -5.19936 1 1
63 1 6.2314 4.47046 2.6955 5.26523 0.766469 1.07136 1 1
64 1 6.24 6.24 0.891429 0 0 0 1 2
65 1 7.13143 3.56572 0 0 0 0 1 3
66 1 7.11782 5.3736 1.76183 -0.984715 -3.16101 0.414263 1 1
67 1 8.93176 3.59131 1.8084 -0.398648 -0.306596 9.07615 1 1
68 1 8.91429 5.34857 0 0 0 0 1 3
69 1 8.02286 4.45714 0.891429 0 0 0 1 2
70 1 8.02014 6.21827 2.67779 0.79441 3.21895 3.42161 1 1
71 1 9.81632 4.45663 2.7028 -0.512878 -0.533107 -0.317523 1 1
72 1 9.80572 6.24 0.891429 0 0 0 1 2
73 1 10.6971 3.56572 0 0 0 0 1 3
74 1 10.6896 5.33886 1.82188 7.17 -3.83321 4.00271 1 1
75 1 12.4534 3.5456 1.77808 4.79067 2.67507 1.22729 1 1
76 1 12.48 5.34857 0 0 0 0 1 3
77 1 11.5886 4.45714 0.891429 0 0 0 1 2
78 1 11.5666 6.24808 2.68947 -3.95379 12.2232 8.12987 1 1
79 1 13.3644 4.45614 2.64927 3.22228 -2.91018 6.43306 1 1
80 1 13.3714 6.24 0.891429 0 0 0 1 2
81 1 14.2629 3.56572 0 0 0 0 1 3
82 1 14.2788 5.34189 1.76306 0.428354 6.0376 -0.605746 1 1
83 1 16.0438 3.52736 1.78137 -5.67313 -1.32604 5.21916 1 1
84 1 16.0457 5.34857 0 0 0 0 1 3
85 1 15.1543 4.45714 0.891429 0 0 0 1 2
86 1 15.1847 6.20103 2.70009 3.79048 -1.29848 -6.2194 1 1
87 1 16.9301 4.43292 2.65778 7.02563 -7.22537 -1.1008 1 1
88 1 16.9371 6.24 0.891429 0 0 0 1 2
89 1 17.8286 3.56572 0 0 0 0 1 3
90 1 17.8341 5.35877 1.78263 -9.15537 0.146376 0.209711 1 1
91 1 19.6188 3.55222 1.78983 -3.98802 -1.71918 -9.02533 1 1
92 1 19.6114 5.34857 0 0 0 0 1 3
93 1 18.72 4.45714 0.891429 0 0 0 1 2
94 1 18.7897 6.20648 2.62629 -6.89102 2.75266 1.07099 1 1
95 1 20.5391 4.4201 2.69354 -1.27722 -1.80629 10.0167 1 1
96 1 20.5029 6.24 0.891429 0 0 0 1 2
97 1 0 7.13143 0 0 0 0 1 3
98 1 0.0282426 8.88563 1.75801 7.52715 -0.160085 0.483322 1 1
99 1 1.80295 7.10808 1.78937 -1.73345 -0.920482 -0.112406 1 1
100 1 1.78286 8.91429 0 0 0 0 1 3
101 1 0.891429 8.02286 0.891429 0 0 0 1 2
102 1 0.89665 9.79838 2.64831 -0.965811 -1.50824 7.86305 1 1
103 1 2.68535 7.95745 2.69451 7.17063 6.85948 -8.96458 1 1
104 1 2.67429 9.80572 0.891429 0 0 0 1 2
105 1 3.56572 7.13143 0 0 0 0 1 3
106 1 3.56539 8.86471 1.79729 -3.57947 -4.27869 -8.41417 1 1
107 1 5.35695 7.11601 1.82212 5.23362 -2.58161 1.85713 1 1
108 1 5.34857 8.91429 0 0 0 0 1 3
109 1 4.45714 8.02286 0.891429 0 0 0 1 2
110 1 4.46667 9.78858 2.71624 -0.863697 -2.51049 -7.61296 1 1
111 1 6.26927 8.02787 2.68296 3.07707 3.00891 3.65334 1 1
112 1 6.24 9.80572 0.891429 0 0 0 1 2
113 1 7.13143 7.13143 0 0 0 0 1 3
114 1 7.15908 8.9027 1.82122 -2.28591 -10.4308 -5.34942 1 1
115 1 8.91285 7.11407 1.77217 -2.3886 1.31334 5.861 1 1
116 1 8.91429 8.91429 0 0 0 0 1 3
117 1 8.02286 8.02286 0.891429 0 0 0 1 2
118 1 8.03807 9.81411 2.70382 5.91704 2.15867 -1.64496 1 1
119 1 9.75283 8.00854 2.667 -3.35692 -2.74607 0.434631 1 1
120 1 9.80572 9.80572 0.891429 0 0 0 1 2
121 1 10.6971 7.13143 0 0 0 0 1 3
122 1 10.6449 8.91498 1.78634 -1.0225 -1.86879 3.51777 1 1
123 1 12.487 7.13144 1.84103 -0.916057 -5.94423 -1.30067 1 1
124 1 12.48 8.91429 0 0 0 0 1 3
125 1 11.5886 8.02286 0.891429 0 0 0 1 2
126 1 11.5549 9.83448 2.68321 3.05899 -3.10351 12.5998 1 1
127 1 13.4061 7.99162 2.69388 -2.52644 0.683918 3.47831 1 1
128 1 13.3714 9.80572 0.891429 0 0 0 1 2
129 1 14.2629 7.13143 0 0 0 0 1 3
130 1 14.2929 8.89577 1.75928 -0.545325 0.326449 1.7774 1 1
131 1 16.0886 7.1212 1.77641 -0.956278 0.976552 0.177077 1 1
132 1 16.0457 8.91429 0 0 0 0 1 3
133 1 15.1543 8.02286 0.891429 0 0 0 1 2
134 1 15.1329 9.78682 2.66261 0.0532947 -2.31425 6.07203 1 1
135 1 16.9915 8.00138 2.65966 -2.29308 5.53053 7.26176 1 1
136 1 16.9371 9.80572 0.891429 0 0 0 1 2
137 1 17.8286 7.13143 0 0 0 0 1 3
138 1 17.8523 8.93658 1.7771 -3.12241 2.17057 8.285 1 1
139 1 19.65 7.13175 1.78845 -8.15232 2.8122 2.80379 1 1
140 1 19.6114 8.91429 0 0 0 0 1 3
141 1 18.72 8.02286 0.891429 0 0 0 1 2
142 1 18.6994 9.76443 2.69462 5.67774 -9.61847 1.54633 1 1
143 1 20.4978 8.0117 2.6976 -5.54553 3.62727 1.08528 1 1
144 1 20.5029 9.80572 0.891429 0 0 0 1 2
145 1 0 10.6971 0 0 0 0 1 3
146 1 0.0189103 12.5068 1.7935 -1.98356 4.5109 11.1864 1 1
147 1 1.77854 10.7129 1.80258 -0.802637 4.22848 0.729549 1 1
148 1 1.78286 12.48 0 0 0 0 1 3
149 1 0.891429 11.5886 0.891429 0 0 0 1 2
150 1 0.89059 13.3802 2.71792 -0.930201 3.26772 4.3307 1 1
151 1 2.63526 11.5939 2.68013 0.0192518 -3.03607 -1.72945 1 1
152 1 2.67429 13.3714 0.891429 0 0 0 1 2
153 1 3.56572 10.6971 0 0 0 0 1 3
154 1 3.53256 12.5321 1.75982 -4.51317 0.50265 8.13762 1 1
155 1 5.37172 10.6608 1.78412 -5.05356 0.636872 2.70788 1 1
156 1 5.34857 12.48 0 0 0 0 1 3
157 1 4.45714 11.5886 0.891429 0 0 0 1 2
158 1 4.46176 13.3952 2.67982 -0.0794592 17.2067 4.84201 1 1
159 1 6.21169 11.5477 2.583 5.22479 9.83075 -7.60173 1 1
160 1 6.24 13.3714 0.891429 0 0 0 1 2
161 1 7.13143 10.6971 0 0 0 0 1 3
162 1 7.10425 12.4861 1.76053 -3.32557 -6.05851 -8.05373 1 1
163 1 8.94899 10.6954 1.78212 2.49532 0.571116 1.56791 1 1
164 1 8.91429 12.48 0 0 0 0 1 3
165 1 8.02286 11.5886 0.891429 0 0 0 1 2
166 1 7.99441 13.3401 2.67081 2.92076 2.76466 -0.317874 1 1
167 1 9.83321 11.5625 2.65127 -0.242809 -4.94361 1.219 1 1
168 1 9.80572 13.3714 0.891429 0 0 0 1 2
169 1 10.6971 10.6971 0 0 0 0 1 3
170 1 10.6454 12.4826 1.76541 -0.500636 0.379728 -12.7282 1 1
171 1 12.457 10.6669 1.7897 -3.66642 2.9126 -1.5289 1 1
172 1 12.48 12.48 0 0 0 0 1 3
173 1 11.5886 11.5886 0.891429 0 0 0 1 2
174 1 11.6254 13.3729 2.62299 -0.198013 0.104036 1.30962 1 1
175 1 13.3835 11.5534 2.66954 -0.0799048 0.267746 -1.32438 1 1
176 1 13.3714 13.3714 0.891429 0 0 0 1 2
177 1 14.2629 10.6971 0 0 0 0 1 3
178 1 14.2827 12.4298 1.77123 0.0988305 3.2832 -2.14787 1 1
179 1 16.035 10.6864 1.78783 7.91139 -2.01811 -3.59625 1 1
180 1 16.0457 12.48 0 0 0 0 1 3
181 1 15.1543 11.5886 0.891429 0 0 0 1 2
182 1 15.1742 13.3737 2.68435 -2.28489 -1.4717 -7.35027 1 1
183 1 16.9848 11.6104 2.68013 7.09698 -1.94569 4.2506 1 1
184 1 16.9371 13.3714 0.891429 0 0 0 1 2
185 1 17.8286 10.6971 0 0 0 0 1 3
186 1 17.8139 12.4792 1.78015 -2.5663 -0.0519639 2.68072 1 1
187 1 19.6429 10.7061 1.79137 4.79787 1.68016 -2.24768 1 1
188 1 19.6114 12.48 0 0 0 0 1 3
189 1 18.72 11.5886 0.891429 0 0 0 1 2
190 1 18.7318 13.3834 2.6387 0.505653 -4.79841 9.30643 1 1
191 1 20.4845 11.6392 2.69068 -0.165224 4.84378 3.03441 1 1
192 1 20.5029 13.3714 0.891429 0 0 0 1 2
193 1 0 14.2629 0 0 0 0 1 3
194 1 0.0157298 16.0309 1.77136 -1.38248 8.53405 -9.66998 1 1
195 1 1.81008 14.2604 1.77845 3.30742 -4.11466 3.56916 1 1
196 1 1.78286 16.0457 0 0 0 0 1 3
197 1 0.891429 15.1543 0.891429 0 0 0 1 2
198 1 0.838125 16.921 2.66944 1.33215 3.08612 -8.76924 1 1
199 1 2.68821 15.16 2.6574 -4.49287 2.18187 0.0648712 1 1
200 1 2.67429 16.9371 0.891429 0 0 0 1 2
201 1 3.56572 14.2629 0 0 0 0 1 3
202 1 3.60133 16.1013 1.77905 9.17148 -8.78693 1.59997 1 1
203 1 5.37587 14.2485 1.7967 10.7503 0.789856 3.40511 1 1
204 1 5.34857 16.0457 0 0 0 0 1 3
205 1 4.45714 15.1543 0.891429 0 0 0 1 2
206 1 4.48725 16.9683 2.70776 -0.360767 2.109 -2.77806 1 1
207 1 6.2726 15.1733 2.65914 -3.51593 -2.97213 -2.11108 1 1
208 1 6.24 16.9371 0.891429 0 0 0 1 2
209 1 7.13143 14.2629 0 0 0 0 1 3
210 1 7.14498 16.054 1.76357 -0.0993093 0.770045 -8.32328 1 1
211 1 8.88237 14.2708 1.76567 3.78202 -1.23117 -0.470194 1 1
212 1 8.91429 16.0457 0 0 0 0 1 3
213 1 8.02286 15.1543 0.891429 0 0 0 1 2
214 1 8.03465 16.9654 2.69964 1.58491 4.72443 -12.6391 1 1
215 1 9.78174 15.151 2.69426 -2.5132 -1.55669 -4.34517 1 1
216 1 9.80572 16.9371 0.891429 0 0 0 1 2
217 1 10.6971 14.2629 0 0 0 0 1 3
218 1 10.7089 16.0531 1.77752 -0.941941 1.09518 6.60919 1 1
219 1 12.5083 14.26 1.70952 -1.95245 6.32618 2.57631 1 1
220 1 12.48 16.0457 0 0 0 0 1 3
221 1 11.5886 15.1543 0.891429 0 0 0 1 2
222 1 11.5947 16.9942 2.67905 3.06405 3.83924 -5.42326 1 1
223 1 13.3796 15.1169 2.61191 1.52098 -1.88574 2.71686 1 1
224 1 13.3714 16.9371 0.891429 0 0 0 1 2
225 1 14.2629 14.2629 0 0 0 0 1 3
226 1 14.2612 16.0235 1.7719 -3.80472 6.46642 -3.96266 1 1
227 1 16.0499 14.2562 1.75035 -2.63566 -10.4445 3.47879 1 1
228 1 16.0457 16.0457 0 0 0 0 1 3
229 1 15.1543 15.1543 0.891429 0 0 0 1 2
230 1 15.1503 16.9443 2.68288 1.94349 -6.19461 4.0431 1 1
231 1 16.9275 15.1624 2.69786 2.3398 13.2733 0.636728 1 1
232 1 16.9371 16.9371 0.891429 0 0 0 1 2
233 1 17.8286 14.2629 0 0 0 0 1 3
234 1 17.8294 16.0795 1.78417 -6.86041 2.14107 -2.5307 1 1
235 1 19.6129 14.2925 1.74634 1.42096 9.02183 0.761005 1 1
236 1 19.6114 16.0457 0 0 0 0 1 3
237 1 18.72 15.1543 0.891429 0 0 0 1 2
238 1 18.695 16.9614 2.66697 0.694497 0.562068 -3.53161 1 1
239 1 20.5549 15.1651 2.67242 5.16209 -1.50588 -1.43813 1 1
240 1 20.5029 16.9371 0.891429 0 0 0 1 2
241 1 0 17.8286 0 0 0 0 1 3
242 1 0.0209471 19.5916 1.78882 5.92059 1.97128 -7.40093 1 1
243 1 1.77026 17.8609 1.76495 0.943591 -2.69776 7.71286 1 1
244 1 1.78286 19.6114 0 0 0 0 1 3
245 1 0.891429 18.72 0.891429 0 0 0 1 2
246 1 0.874996 20.5345 2.69794 -2.99043 4.76339 7.09658 1 1
247 1 2.67229 18.7518 2.68269 2.5594 4.72003 1.41341 1 1
248 1 2.67429 20.5029 0.891429 0 0 0 1 2
249 1 3.56572 17.8286 0 0 0 0 1 3
250 1 3.55105 19.6149 1.77 -3.66007 -0.673298 -12.7283 1 1
251 1 5.35344 17.8363 1.78803 0.347517 4.70254 1.63484 1 1
252 1 5.34857 19.6114 0 0 0 0 1 3
253 1 4.45714 18.72 0.891429 0 0 0 1 2
254 1 4.47442 20.5014 2.69146 -5.43359 6.89593 -1.05951 1 1
255 1 6.25751 18.7387 2.66522 4.63176 -6.21444 -3.15998 1 1
256 1 6.24 20.5029 0.891429 0 0 0 1 2
257 1 7.13143 17.8286 0 0 0 0 1 3
258 1 7.1149 19.6167 1.77982 -3.26268 -7.26687 1.6238 1 1
259 1 8.91287 17.8681 1.82505 -8.7212 1.73005 1.24107 1 1
260 1 8.91429 19.6114 0 0 0 0 1 3
261 1 8.02286 18.72 0.891429 0 0 0 1 2
262 1 8.08131 20.5008 2.64767 1.5809 0.0274575 5.4789 1 1
263 1 9.8057 18.7488 2.73661 0.096595 -0.275939 -5.63816 1 1
264 1 9.80572 20.5029 0.891429 0 0 0 1 2
265 1 10.6971 17.8286 0 0 0 0 1 3
266 1 10.6685 19.6657 1.80168 7.69111 -1.83625 0.0376502 1 1
267 1 12.4499 17.8848 1.77706 3.96176 6.84574 -0.958034 1 1
268 1 12.48 19.6114 0 0 0 0 1 3
269 1 11.5886 18.72 0.891429 0 0 0 1 2
270 1 11.5813 20.5163 2.6923 -0.217253 -0.278341 6.18732 1 1
271 1 13.3828 18.7557 2.67461 0.000593041 0.293127 2.84252 1 1
272 1 13.3714 20.5029 0.891429 0 0 0 1 2
273 1 14.2629 17.8286 0 0 0 0 1 3
274 1 14.2612 19.6157 1.77486 -0.513326 -8.27357 3.89504 1 1
275 1 16.0693 17.8244 1.77159 1.92664 -2.16961 2.99264 1 1
276 1 16.0457 19.6114 0 0 0 0 1 3
277 1 15.1543 18.72 0.891429 0 0 0 1 2
278 1 15.1572 20.5176 2.66758 10.0237 1.84114 2.67832 1 1
279 1 16.9612 18.6999 2.65971 10.8804 -2.51379 3.4337 1 1
280 1 16.9371 20.5029 0.891429 0 0 0 1 2
281 1 17.8286 17.8286 0 0 0 0 1 3
282 1 17.8425 19.6081 1.78641 -0.43925 -0.0503718 1.26111 1 1
283 1 19.6165 17.8164 1.77565 -1.69657 8.3684 -5.11402 1 1
284 1 19.6114 19.6114 0 0 0 0 1 3
285 1 18.72 18.72 0.891429 0 0 0 1 2
286 1 18.7246 20.5117 2.66138 -4.54236 8.39395 1.01306 1 1
287 1 20.5211 18.7582 2.6667 2.94873 -0.210982 0.160956 1 1
288 1 20.5029 20.5029 0.891429 0 0 0 1 2
289 1 21.3822 0.0640989 3.54297 11.5455 -0.919027 5.52188 1 1
290 1 21.3748 1.80131 5.36571 -4.546 1.54986 -0.320234 1 1
291 1 1.72064 0.0574611 5.38396 0.577189 3.51496 0.621975 1 1
292 1 1.79706 1.79061 3.59795 1.16157 -9.81984 1.86647 1 1
293 1 0.897236 0.899217 4.46515 5.80808 4.22891 4.39026 1 1
294 1 0.884999 2.66638 6.32689 1.57552 0.823815 4.60054 1 1
295 1 2.69544 0.850358 6.27919 -4.34069 -3.40089 0.576569 1 1
296 1 2.68167 2.68842 4.5063 10.1781 3.43913 -2.40109 1 1
297 1 3.57141 0.0304755 3.59271 -7.88657 4.8056 -3.06027 1 1
298 1 3.5225 1.75612 5.40254 -4.38106 -0.22453 8.12303 1 1
299 1 5.35507 21.3742 5.4159 -9.6527 -6.93602 1.47393 1 1
300 1 5.30684 1.78269 3.60059 -3.04166 9.34523 0.931489 1 1
301 1 4.4278 0.859292 4.44573 4.14385 -6.391 -7.22024 1 1
302 1 4.44876 2.7061 6.26579 -11.6446 1.23327 5.84947 1 1
303 1 6.1979 0.885009 6.27471 -0.0904565 -2.45746 0.756827 1 1
304 1 6.21633 2.67303 4.4725 6.62842 -7.06166 2.45479 1 1
305 1 7.10635 0.00993717 3.57437 1.68947 -1.4301 4.76863 1 1
306 1 7.14321 1.77365 5.36487 0.279715 2.41551 6.24099 1 1
307 1 8.9086 0.015828 5.37974 -4.05162 2.07565 7.00483 1 1
308 1 8.85118 1.73997 3.52376 5.40431 -2.51913 3.79643 1 1
309 1 7.97522 0.894756 4.44631 -4.85204 -1.25724 -8.29365 1 1
310 1 8.01439 2.66677 6.27461 7.39462 0.272907 0.843651 1 1
311 1 9.78784 0.895187 6.2935 0.355216 -10.7418 8.06237 1 1
312 1 9.79505 2.66191 4.42989 5.25497 3.53454 -0.616482 1 1
313 1 10.6595 0.0111827 3.56433 -2.05356 4.14747 0.481775 1 1
314 1 10.6534 1.77989 5.36731 -7.55071 6.3036 -4.83116 1 1
315 1 12.4858 21.3743 5.31354 -5.74951 -2.91512 0.147675 1 1
316 1 12.4796 1.76598 3.59051 -2.38704 1.81581 -4.36021 1 1
317 1 11.5501 0.872944 4.45592 -6.19415 -3.09005 -2.89473 1 1
318 1 11.5322 2.65915 6.28397 6.45715 0.839176 4.81077 1 1
319 1 13.3352 0.876181 6.23478 -0.867853 6.31925 -0.023528 1 1
320 1 13.3218 2.64765 4.50252 7.22373 -3.6713 -5.86924 1 1
321 1 14.2684 0.00183164 3.60311 -5.89951 4.18481 -5.84342 1 1
322 1 14.2227 1.77358 5.38919 4.22536 -3.40751 3.194 1 1
323 1 16.0415 21.3485 5.3528 -0.522144 1.49015 -4.56253 1 1
324 1 16.0637 1.73303 3.57457 6.10798 0.334034 -6.37144 1 1
325 1 15.1515 0.857541 4.47957 6.12502 7.23464 -2.74843 1 1
326 1 15.1574 2.66283 6.2848 -0.259084 4.37151 -3.1529 1 1
327 1 16.891 0.852812 6.23761 -2.16265 -0.324736 1.26592 1 1
328 1 16.9801 2.60874 4.48092 -6.31501 3.7314 -2.30356 1 1
329 1 17.841 21.3774 3.57622 5.1287 -0.335401 -4.2018 1 1
330 1 17.8073 1.7691 5.40392 7.29912 -2.40237 3.14743 1 1
331 1 19.6085 21.3624 5.41444 -1.46448 0.356604 -0.3168 1 1
332 1 19.6117 1.78893 3.59468 -2.82243 1.62887 1.65597 1 1
333 1 18.7496 0.868047 4.43707 3.33994 5.92606 4.83338 1 1
334 1 18.666 2.62231 6.27253 -5.22781 1.69089 -0.606283 1 1
335 1 20.5111 0.891537 6.27858 -0.1177 1.0613 -5.76503 1 1
336 1 20.5038 2.65655 4.42647 -2.82563 -3.69606 1.8362 1 1
337 1 21.3759 3.54324 3.56526 1.08858 2.15962 4.99517 1 1
338 1 0.0170711 5.30702 5.39466 9.95297 4.60032 1.04726 1 1
339 1 1.76821 3.55835 5.40448 -0.357627 -0.756725 -2.63469 1 1
340 1 1.82029 5.3831 3.60902 -0.71097 1.71942 -1.5212 1 1
341 1 0.883894 4.43555 4.49538 2.66144 -5.42971 -1.72857 1 1
342 1 0.92008 6.26496 6.22651 1.8201 -0.979452 -3.89617 1 1
343 1 2.69817 4.47195 6.28227 0.102752 -1.83517 0.774099 1 1
344 1 2.68444 6.2428 4.46944 5.61605 9.45531 -2.5181 1 1
345 1 3.56593 3.58911 3.69152 1.41572 -1.16388 2.98458 1 1
346 1 3.58245 5.38155 5.39268 11.6023 3.44916 4.09765 1 1
347 1 5.3736 3.53923 5.4018 -4.94138 -1.39337 -0.989828 1 1
348 1 5.33165 5.33863 3.60041 -1.06755 -4.02126 -3.66181 1 1
349 1 4.48018 4.45489 4.53559 3.15697 0.117681 3.84618 1 1
350 1 4.4858 6.22789 6.29771 -1.57275 6.04061 2.89381 1 1
351 1 6.27528 4.45064 6.29891 2.93046 7.07475 -4.46194 1 1
352 1 6.25647 6.23828 4.47502 6.78858 -7.38153 0.809019 1 1
353 1 7.10361 3.56158 3.58449 -1.99959 4.28014 6.24408 1 1
354 1 7.10765 5.32776 5.37615 -2.08609 5.32835 -1.8314 1 1
355 1 8.93047 3.54049 5.35561 1.91823 1.74425 4.04562 1 1
356 1 8.93403 5.34941 3.52241 -10.7407 4.17392 5.12209 1 1
357 1 8.06282 4.44313 4.44876 6.56286 6.46027 1.93961 1 1
358 1 8.02412 6.21533 6.26151 4.97696 -2.06438 5.51861 1 1
359 1 9.77475 4.4654 6.26251 2.84352 -0.0672418 10.2735 1 1
360 1 9.78017 6.23527 4.48597 4.75797 -1.27165 1.5332 1 1
361 1 10.6772 3.57137 3.58738 14.0437 1.21381 2.60499 1 1
362 1 10.6267 5.33058 5.36303 -3.32297 5.94368 -0.319018 1 1
363 1 12.4663 3.5572 5.40301 -3.21975 -3.70182 5.02413 1 1
364 1 12.4578 5.28907 3.56704 -2.72516 9.61274 -5.09134 1 1
365 1 11.5707 4.44112 4.51646 -1.05547 -2.7434 4.17896 1 1
366 1 11.5851 6.20765 6.27506 -6.74949 -3.06006 -1.49112 1 1
367 1 13.3588 4.45306 6.27254 3.05073 1.60723 0.522851 1 1
368 1 13.3586 6.25964 4.45867 -0.264383 6.28399 8.24439 1 1
369 1 14.2487 3.55991 3.60524 -13.0632 0.21299 -1.96468 1 1
370 1 14.292 5.37378 5.41211 -5.61305 -1.16957 -1.75853 1 1
371 1 16.0433 3.54213 5.40699 1.04005 6.10908 7.34376 1 1
372 1 16.0509 5.30839 3.59005 -11.2927 2.08386 2.07415 1 1
373 1 15.1798 4.45015 4.50226 1.669 -7.11442 2.81549 1 1
374 1 15.1392 6.2666 6.31816 -0.620324 4.99026 6.96524 1 1
375 1 16.9575 4.44581 6.28927 -3.26911 1.86659 8.25975 1 1
376 1 16.9166 6.18263 4.45553 1.7611 -3.96122 1.76151 1 1
377 1 17.8493 3.54227 3.63652 -2.57977 0.390913 -5.38045 1 1
378 1 17.8339 5.35295 5.34518 -3.12168 7.37716 -0.585125 1 1
379 1 19.6153 3.55567 5.35149 -4.11332 -7.10785 -7.51547 1 1
380 1 19.6719 5.3148 3.55341 9.02946 5.87378 3.07013 1 1
381 1 18.7201 4.45652 4.49612 3.10913 1.43693 -1.67661 1 1
382 1 18.7141 6.239 6.22651 -2.44666 -3.45061 -4.302 1 1
383 1 20.4997 4.42647 6.29922 0.595793 -3.63861 8.00412 1 1
384 1 20.4952 6.20964 4.46274 4.33327 -2.26626 -0.94287 1 1
385 1 21.3967 7.10856 3.55182 9.27181 5.20951 6.46845 1 1
386 1 21.3525 8.93371 5.36194 -3.37871 1.01259 4.24194 1 1
387 1 1.7949 7.14102 5.35838 -0.348609 -5.29504 -1.48885 1 1
388 1 1.76323 8.89429 3.54443 7.84932 2.71301 4.33543 1 1
389 1 0.863088 8.01096 4.47408 4.05272 4.85462 0.822171 1 1
390 1 0.889775 9.82669 6.29071 -0.944065 -6.55687 -0.944967 1 1
391 1 2.67977 8.00258 6.27144 6.78385 1.75754 0.160116 1 1
392 1 2.66734 9.82615 4.46495 -4.06215 -1.66095 0.862733 1 1
393 1 3.5545 7.10914 3.52682 2.82154 6.98398 5.50538 1 1
394 1 3.58489 8.90189 5.37351 -0.482482 8.02442 4.85979 1 1
395 1 5.32063 7.13298 5.36121 -1.05819 4.44368 -0.181369 1 1
396 1 5.34238 8.91729 3.58434 1.36588 1.67246 -1.85556 1 1
397 1 4.46237 8.04524 4.44775 7.24275 -1.99708 -2.19802 1 1
398 1 4.45468 9.77516 6.27554 8.80944 -3.45315 -6.10095 1 1
399 1 6.23474 8.01683 6.25193 -1.70357 2.00413 -1.08233 1 1
400 1 6.20829 9.74859 4.45626 5.09524 1.94135 -4.87665 1 1
401 1 7.13894 7.11301 3.62363 2.28187 -6.56936 -1.49555 1 1
402 1 7.18437 8.89732 5.35423 -0.848951 -1.79006 3.28294 1 1
403 1 8.90462 7.12688 5.40702 -6.92863 0.318667 -10.4586 1 1
404 1 8.91601 8.91373 3.55541 0.142444 3.01889 3.20906 1 1
405 1 8.03469 8.01766 4.47132 -1.23109 5.09864 2.16668 1 1
406 1 8.01691 9.7791 6.2272 4.08988 3.89417 1.08795 1 1
407 1 9.79172 8.0172 6.31465 -0.402709 -1.45511 -5.16285 1 1
408 1 9.81802 9.81744 4.4454 2.63135 -0.136938 6.69098 1 1
409 1 10.598 7.14446 3.56756 0.735856 6.46671 2.88937 1 1
410 1 10.6957 8.91056 5.35341 4.96771 -6.32803 0.053464 1 1
411 1 12.4886 7.13031 5.35773 1.68631 4.69669 2.4517 1 1
412 1 12.4729 8.87039 3.58349 3.59893 8.24878 -3.07958 1 1
413 1 11.5484 8.01107 4.45745 -0.498968 1.82892 -2.96407 1 1
414 1 11.5695 9.77811 6.2813 -3.91065 3.02615 -0.815077 1 1
415 1 13.3818 7.98851 6.25681 -0.347258 -4.51847 5.17053 1 1
416 1 13.3622 9.76182 4.48333 -5.52492 -4.4581 0.185381 1 1
417 1 14.2772 7.14266 3.58318 -5.17001 -2.10878 4.13541 1 1
418 1 14.2663 8.91132 5.33887 -0.920397 1.08079 -0.939856 1 1
419 1 16.0414 7.1695 5.41503 -6.21147 -2.20201 3.67936 1 1
420 1 16.0251 8.9341 3.60969 -6.47852 0.144299 6.66827 1 1
421 1 15.1722 8.03072 4.50543 2.94846 -3.65588 1.54123 1 1
422 1 15.1777 9.79701 6.25439 1.74063 2.4422 2.22043 1 1
423 1 16.9335 8.04302 6.30998 2.62947 1.58202 -5.48896 1 1
424 1 16.9434 9.80336 4.49627 6.04497 0.758031 5.60634 1 1
425 1 17.8426 7.07404 3.57733 1.76919 -13.2557 -0.739912 1 1
426 1 17.8268 8.87773 5.42251 -0.122747 2.39852 -8.16535 1 1
427 1 19.5987 7.13431 5.36038 6.90396 10.0548 6.8481 1 1
428 1 19.5867 8.92711 3.55126 -4.27654 4.67773 -5.66835 1 1
429 1 18.7064 8.03609 4.47025 -2.66209 -5.42097 4.65002 1 1
430 1 18.6963 9.84027 6.29174 -1.17031 -1.54175 -0.600167 1 1
431 1 20.496 8.03746 6.28413 0.394502 -0.441702 4.32722 1 1
432 1 20.467 9.82054 4.4607 2.35499 -1.26001 1.18382 1 1
433 1 21.3919 10.727 3.58993 2.03622 0.0906121 -4.57729 1 1
434 1 21.3873 12.4416 5.38613 0.968038 -3.78895 -4.65514 1 1
435 1 1.75289 10.7039 5.39124 3.9455 2.3038 -8.30684 1 1
436 1 1.79171 12.5126 3.60569 -1.47748 1.37649 -0.141024 1 1
437 1 0.891321 11.6216 4.50361 -0.935355 -3.66492 -2.1459 1 1
438 1 0.892101 13.3112 6.27832 -2.89012 8.61179 4.83473 1 1
439 1 2.73866 11.5641 6.27956 -2.87804 -8.21558 -9.83067 1 1
440 1 2.6664 13.3971 4.46665 2.37487 -11.8914 -3.51042 1 1
441 1 3.54518 10.6684 3.5386 2.4732 0.357773 6.26865 1 1
442 1 3.59681 12.4792 5.33664 14.2419 -0.0342993 1.47184 1 1
443 1 5.37317 10.6446 5.39458 -0.640254 3.06133 -0.639424 1 1
444 1 5.36447 12.4725 3.55851 -0.249377 -3.88038 4.09008 1 1
445 1 4.45021 11.5701 4.43635 0.118928 0.81155 -0.740557 1 1
446 1 4.45974 13.3245 6.2546 -0.747357 3.84142 -1.86636 1 1
447 1 6.27459 11.5585 6.29893 10.8845 -3.08166 1.0199 1 1
448 1 6.24798 13.3769 4.45177 -1.43103 -2.17956 1.06015 1 1
449 1 7.14332 10.6432 3.53146 -1.41308 2.72083 5.34107 1 1
450 1 7.13513 12.4671 5.34299 -4.89595 9.10202 -0.846551 1 1
451 1 8.8985 10.7112 5.35659 -1.464 -5.48424 -0.329571 1 1
452 1 8.92044 12.4712 3.52633 -0.0761776 -1.74702 -1.65115 1 1
453 1 8.02516 11.6027 4.45726 0.0951899 0.321802 7.78024 1 1
454 1 8.05316 13.3673 6.26732 -3.4312 -0.444961 -0.742024 1 1
455 1 9.77417 11.6037 6.25005 0.2304 3.0865 3.46929 1 1
456 1 9.81226 13.3513 4.40225 1.36929 -4.62819 4.06024 1 1
457 1 10.7147 10.704 3.56239 -0.536126 8.13663 3.22993 1 1
458 1 10.6817 12.4777 5.36566 1.87667 -2.93069 1.68449 1 1
459 1 12.5054 10.6695 5.38184 0.629258 1.39608 2.44204 1 1
460 1 12.4983 12.4333 3.561 -1.90998 -8.29241 -1.16432 1 1
461 1 11.5845 11.5443 4.50899 0.041786 5.87159 0.336046 1 1
462 1 11.5288 13.3712 6.26188 2.96703 3.18609 -3.10156 1 1
463 1 13.3636 11.6125 6.29224 -5.57048 5.23769 3.27029 1 1
464 1 13.3596 13.3324 4.45391 5.25081 -3.98513 8.48211 1 1
465 1 14.2114 10.6615 3.56759 5.23409 -2.95296 -6.05442 1 1
466 1 14.281 12.4842 5.38119 9.23543 -0.64806 4.34827 1 1
467 1 16.095 10.6771 5.35734 2.36699 -3.41842 2.05378 1 1
468 1 16.0688 12.4781 3.58353 4.32319 5.80942 -7.34976 1 1
469 1 15.1648 11.5781 4.4526 6.77501 1.53144 -1.64234 1 1
470 1 15.1118 13.3653 6.31714 2.08359 -2.31185 -1.70443 1 1
471 1 16.9357 11.5877 6.26432 3.29761 -4.36556 -0.736422 1 1
472 1 16.9427 13.3814 4.53073 -11.4058 1.38329 5.05745 1 1
473 1 17.8547 10.6715 3.56408 -2.03555 3.09949 -4.54571 1 1
474 1 17.8023 12.4817 5.4311 8.34522 2.01288 3.83827 1 1
475 1 19.5863 10.7339 5.37967 -0.505292 3.68888 -6.75658 1 1
476 1 19.5604 12.4803 3.54807 -3.45031 -3.34562 1.95992 1 1
477 1 18.6967 11.626 4.45714 -2.71423 7.44059 6.93778 1 1
478 1 18.7016 13.4171 6.29409 2.78927 -3.29365 -0.687715 1 1
479 1 20.4944 11.6335 6.29607 -5.40868 -6.08151 -2.33706 1 1
480 1 20.4586 13.3719 4.46944 -7.30952 -2.86296 0.542497 1 1
481 1 21.3646 14.2681 3.58404 2.22993 5.06796 -2.0195 1 1
482 1 0.0192984 16.0314 5.37961 -0.480691 -6.49145 6.58147 1 1
483 1 1.82307 14.2264 5.37509 5.45669 -2.17539 1.16683 1 1
484 1 1.76093 15.993 3.59084 10.2731 4.85546 -0.847847 1 1
485 1 0.885496 15.1176 4.49479 -4.25822 -3.05346 8.83459 1 1
486 1 0.929017 16.9162 6.26327 3.08541 -0.0544781 4.97914 1 1
487 1 2.67197 15.1459 6.25791 6.5851 1.74388 4.06447 1 1
488 1 2.66679 16.9519 4.47975 -5.79131 1.37162 0.453004 1 1
489 1 3.56192 14.2629 3.56482 -2.22109 1.27198 -5.23517 1 1
490 1 3.5374 16.0312 5.37593 5.7563 4.40941 1.90128 1 1
491 1 5.33016 14.2289 5.35264 0.437187 10.3289 5.19486 1 1
492 1 5.40565 16.0027 3.56108 -4.30903 -2.40134 -12.218 1 1
493 1 4.4805 15.1316 4.45945 -0.711626 3.93781 1.99988 1 1
494 1 4.45045 16.8998 6.24365 -1.53878 0.592789 -1.76661 1 1
495 1 6.2362 15.1015 6.23924 -3.38159 0.823706 -5.45594 1 1
496 1 6.25378 16.8715 4.46097 4.36421 6.27472 0.831913 1 1
497 1 7.15721 14.2488 3.59219 5.16171 4.46128 -0.0862182 1 1
498 1 7.13812 15.9972 5.35335 -1.64703 6.11199 2.14383 1 1
499 1 8.96012 14.2684 5.35571 3.92445 -3.45124 2.30357 1 1
500 1 8.92247 16.0498 3.58778 0.826464 -5.70756 0.167824 1 1
501 1 8.0371 15.1126 4.45723 1.03306 3.10665 -7.06576 1 1
502 1 8.0537 16.9406 6.2567 1.42236 -4.96574 -1.94397 1 1
503 1 9.79248 15.1897 6.26302 -8.88203 -1.50579 0.652858 1 1
504 1 9.83964 16.9892 4.45897 -4.88318 6.73857 -6.36189 1 1
505 1 10.7252 14.2666 3.52933 8.65633 2.2756 -0.26783 1 1
506 1 10.7337 16.0589 5.40106 -1.43589 -4.59718 -3.96537 1 1
507 1 12.4566 14.2479 5.37268 4.13666 1.19705 4.12736 1 1
508 1 12.4912 16.0402 3.57893 5.36231 0.507155 -1.3123 1 1
509 1 11.5876 15.1533 4.4614 -5.4212 -2.59398 2.59954 1 1
510 1 11.6064 16.9355 6.29255 -7.16228 0.72207 4.94877 1 1
511 1 13.3591 15.153 6.27053 -0.110194 -0.685196 0.732132 1 1
512 1 13.3578 16.9162 4.46842 7.0831 0.275851 0.819403 1 1
513 1 14.2875 14.2524 3.59532 1.11444 1.258 -11.4517 1 1
514 1 14.2111 15.995 5.36977 -0.77666 1.11652 0.0249658 1 1
515 1 16.0244 14.2267 5.40203 2.64883 2.35759 1.15553 1 1
516 1 16.0307 16.0216 3.6536 -2.08679 8.77239 -9.34821 1 1
517 1 15.0934 15.1494 4.50116 7.09851 3.01915 -6.26902 1 1
518 1 15.1066 16.9165 6.26323 9.77176 -4.21082 10.988 1 1
519 1 16.9225 15.1274 6.29019 -7.39629 -0.0791817 3.05086 1 1
520 1 16.9564 16.8783 4.47702 6.56164 2.17495 4.38271 1 1
521 1 17.8399 14.2369 3.57728 -2.54173 2.88101 1.63024 1 1
522 1 17.8441 16.0564 5.39024 -5.2278 -0.762455 2.01672 1 1
523 1 19.616 14.3112 5.43794 2.22623 -5.60984 5.63023 1 1
524 1 19.5981 16.0593 3.5534 13.0622 3.15602 5.07874 1 1
525 1 18.7312 15.168 4.48492 -3.85023 -2.93812 2.3667 1 1
526 1 18.7296 16.985 6.29634 -2.6914 -2.08728 -0.403108 1 1
527 1 20.5208 15.1838 6.30884 -6.15155 3.39162 9.12856 1 1
528 1 20.5135 16.9314 4.45812 0.915511 10.7971 2.49898 1 1
529 1 0.0163451 17.8557 3.55435 9.17868 -0.863865 1.46152 1 1
530 1 21.324 19.605 5.37821 5.91081 4.64747 -6.43674 1 1
531 1 1.786 17.8868 5.39232 2.76351 -4.21555 3.25803 1 1
532 1 1.78748 19.6344 3.57391 7.70451 -3.56904 -0.724973 1 1
533 1 0.916799 18.7434 4.48958 -4.45949 3.03537 -7.40372 1 1
534 1 0.845996 20.4838 6.2441 -5.97997 0.311058 5.94916 1 1
535 1 2.69179 18.7397 6.31254 -1.51639 0.75325 4.54821 1 1
536 1 2.65017 20.5256 4.47682 6.66942 8.48541 3.30572 1 1
537 1 3.54993 17.8428 3.60987 -5.6619 1.922 -1.74006 1 1
538 1 3.56375 19.611 5.3993 -3.8052 8.57171 -0.346721 1 1
539 1 5.33765 17.769 5.3685 3.50397 -1.94339 -2.69431 1 1
540 1 5.34723 19.5865 3.59809 -1.72229 -0.706812 -4.79953 1 1
541 1 4.44575 18.6828 4.52402 -2.84573 2.07291 -2.1002 1 1
542 1 4.43876 20.4957 6.27283 -3.51071 -2.14913 3.29367 1 1
543 1 6.27648 18.7194 6.24804 2.39825 1.52642 -0.941457 1 1
544 1 6.20466 20.5195 4.49782 2.94308 8.38503 -2.63966 1 1
545 1 7.1267 17.8412 3.56105 6.89294 -3.97892 -3.6256 1 1
546 1 7.16996 19.61 5.40617 -5.48613 2.45235 -4.77509 1 1
547 1 8.91615 17.8469 5.36987 -3.52543 2.16635 3.80434 1 1
548 1 8.95017 19.6237 3.57944 -5.54707 1.91414 8.09299 1 1
549 1 8.04892 18.7369 4.4514 -3.8963 -4.66621 7.2091 1 1
550 1 8.04982 20.5386 6.26061 -9.01227 -3.86839 7.42635 1 1
551 1 9.81791 18.6951 6.26046 -2.73127 5.88133 3.53294 1 1
552 1 9.78505 20.5435 4.48011 2.35726 1.60709 4.75656 1 1
553 1 10.6889 17.8684 3.60349 -2.80055 -4.10982 3.22082 1 1
554 1 10.6716 19.6176 5.38331 -4.08106 -3.25409 -4.12646 1 1
555 1 12.4502 17.8174 5.35818 1.04727 4.60962 3.64807 1 1
556 1 12.4852 19.6314 3.58504 9.37583 -4.66196 5.15958 1 1