ITEM: TIMESTEP
2550
ITEM: NUMBER OF ATOMS
2952
ITEM: BOX BOUNDS pp pp mm
0.0000000000000000e+00 2.1394294200000001e+01
0.0000000000000000e+00 2.1394294200000001e+01
-4.4571446250000002e-01 5.3485735500000004e+01
ITEM: ATOMS id type x y z vx vy vz v_is_diamond c_structure_type
1 1 0 0 0 0 0 0 1 3
2 1 1.78286 1.78286 0 0 0 0 1 3
3 1 0.891429 0.891429 0.891429 0 0 0 1 2
4 1 0.905982 2.683 2.70186 1.0474 -0.464337 -1.6839 1 1
5 1 2.70154 0.882597 2.68603 0.854996 -6.23417 -2.22946 1 1
6 1 2.67429 2.67429 0.891429 0 0 0 1 2
7 1 21.394 1.77666 1.77521 4.53675 3.77646 -3.04909 1 1
8 1 1.79809 21.3875 1.77529 -3.11769 1.87677 1.69806 1 1
9 1 1.79494 3.55004 1.83536 -0.995961 -0.462965 7.37752 1 1
10 1 3.55677 1.81867 1.77077 -5.45973 3.08481 1.82527 1 1
11 1 3.56572 0 0 0 0 0 1 3
12 1 5.34857 1.78286 0 0 0 0 1 3
13 1 4.45714 0.891429 0.891429 0 0 0 1 2
14 1 4.44196 2.69383 2.67189 6.73025 -9.37671 10.3399 1 1
15 1 6.24223 0.937889 2.68969 -0.220145 6.33507 -3.19983 1 1
16 1 6.24 2.67429 0.891429 0 0 0 1 2
17 1 7.09173 1.83168 1.79229 0.218633 5.42015 -0.428914 1 1
18 1 7.13143 0 0 0 0 0 1 3
19 1 8.02286 0.891429 0.891429 0 0 0 1 2
20 1 7.98395 2.67973 2.68966 -2.75067 -4.51367 -2.20875 1 1
21 1 8.91429 1.78286 0 0 0 0 1 3
22 1 9.77557 0.88642 2.63218 -8.05503 -1.75254 3.77754 1 1
23 1 9.80572 2.67429 0.891429 0 0 0 1 2
24 1 8.88341 0.00794941 1.77586 -3.78221 -2.37214 3.20522 1 1
25 1 10.7147 1.78281 1.76375 4.18773 -13.9861 -0.682354 1 1
26 1 10.6971 0 0 0 0 0 1 3
27 1 12.48 1.78286 0 0 0 0 1 3
28 1 11.5886 0.891429 0.891429 0 0 0 1 2
29 1 11.5855 2.66125 2.63859 -3.37226 -8.7219 -6.36342 1 1
30 1 13.3122 0.883067 2.65769 6.83438 -6.29692 -8.6142 1 1
31 1 13.3714 2.67429 0.891429 0 0 0 1 2
32 1 14.2297 1.7736 1.73997 13.9669 2.43672 0.440071 1 1
33 1 14.2629 0 0 0 0 0 1 3
34 1 16.0457 1.78286 0 0 0 0 1 3
35 1 15.1543 0.891429 0.891429 0 0 0 1 2
36 1 15.1075 2.70964 2.67707 -1.36131 -2.42419 0.411416 1 1
37 1 16.9073 0.91018 2.65513 -2.97843 0.615375 2.663 1 1
38 1 16.9371 2.67429 0.891429 0 0 0 1 2
39 1 16.069 0.000191645 1.77353 2.64344 -4.55675 7.64993 1 1
40 1 17.8127 1.85494 1.82408 -1.52402 5.32422 -5.50804 1 1
41 1 17.8286 0 0 0 0 0 1 3
42 1 19.6114 1.78286 0 0 0 0 1 3
43 1 18.72 0.891429 0.891429 0 0 0 1 2
44 1 18.7333 2.71492 2.69546 -3.46421 4.86181 -5.09489 1 1
45 1 20.5258 0.947042 2.72079 2.77906 -2.74834 1.21786 1 1
46 1 20.5029 2.67429 0.891429 0 0 0 1 2
47 1 0 3.56572 0 0 0 0 1 3
48 1 1.78286 5.34857 0 0 0 0 1 3
49 1 0.891429 4.45714 0.891429 0 0 0 1 2
50 1 0.949367 6.26763 2.66845 -1.4411 0.0681495 -9.18343 1 1
51 1 2.68622 4.48573 2.66991 10.2944 2.75253 -5.81759 1 1
52 1 2.67429 6.24 0.891429 0 0 0 1 2
53 1 3.5642 5.35822 1.79072 -2.49947 5.99095 -0.143348 1 1
54 1 5.33118 3.56839 1.79131 2.31102 -0.198542 4.59795 1 1
55 1 3.56572 3.56572 0 0 0 0 1 3
56 1 5.34857 5.34857 0 0 0 0 1 3
57 1 4.45714 4.45714 0.891429 0 0 0 1 2
58 1 4.48614 6.23734 2.69038 -2.87927 3.22111 -3.29588 1 1
59 1 6.2313 4.44497 2.6896 0.128852 0.538694 -4.49915 1 1
60 1 6.24 6.24 0.891429 0 0 0 1 2
61 1 5.35399 7.13025 1.80143 -2.28754 -4.78138 13.9048 1 1
62 1 7.1456 5.35058 1.78986 -7.69191 0.521146 1.67353 1 1
63 1 7.13143 3.56572 0 0 0 0 1 3
64 1 8.91956 3.5445 1.77285 11.1064 5.1596 -0.00325268 1 1
65 1 8.02286 4.45714 0.891429 0 0 0 1 2
66 1 8.03138 6.21396 2.6987 -0.975357 -3.58063 -1.23097 1 1
67 1 8.91429 5.34857 0 0 0 0 1 3
68 1 9.77893 4.43318 2.70288 -1.10144 -5.45594 5.24169 1 1
69 1 9.80572 6.24 0.891429 0 0 0 1 2
70 1 10.6501 5.30528 1.79162 3.3646 -2.68553 -11.1651 1 1
71 1 12.4884 3.56732 1.76738 3.80751 0.841489 1.32649 1 1
72 1 10.6971 3.56572 0 0 0 0 1 3
73 1 12.48 5.34857 0 0 0 0 1 3
74 1 11.5886 4.45714 0.891429 0 0 0 1 2
75 1 11.5691 6.20374 2.71019 -4.6694 0.330161 -2.97175 1 1
76 1 13.3619 4.43289 2.67577 -0.722935 -4.49079 1.087 1 1
77 1 13.3714 6.24 0.891429 0 0 0 1 2
78 1 14.2482 5.34981 1.77405 -6.41565 -6.3901 6.03395 1 1
79 1 16.0139 3.56919 1.77739 2.60787 -3.88892 3.16542 1 1
80 1 14.2629 3.56572 0 0 0 0 1 3
81 1 16.0457 5.34857 0 0 0 0 1 3
82 1 15.1543 4.45714 0.891429 0 0 0 1 2
83 1 15.1364 6.20751 2.64851 -5.22477 3.46906 5.08535 1 1
84 1 16.8977 4.48932 2.67125 0.492526 -4.18472 1.57865 1 1
85 1 16.9371 6.24 0.891429 0 0 0 1 2
86 1 17.8289 5.36356 1.80254 -1.67147 -0.691783 0.125391 1 1
87 1 19.5691 3.59798 1.80267 3.93944 3.01923 -3.64543 1 1
88 1 21.3903 5.3828 1.79829 3.53309 -1.62764 -5.23825 1 1
89 1 17.8286 3.56572 0 0 0 0 1 3
90 1 19.6114 5.34857 0 0 0 0 1 3
91 1 18.72 4.45714 0.891429 0 0 0 1 2
92 1 18.7064 6.26644 2.71363 2.51001 0.32905 1.25431 1 1
93 1 20.5074 4.49931 2.70057 -0.323078 -0.609125 -5.07373 1 1
94 1 20.5029 6.24 0.891429 0 0 0 1 2
95 1 19.6213 7.13582 1.75969 3.23552 -2.9309 -1.25818 1 1
96 1 1.78336 7.1638 1.78715 0.426021 0.234269 -2.48328 1 1
97 1 0 7.13143 0 0 0 0 1 3
98 1 0.891429 8.02286 0.891429 0 0 0 1 2
99 1 2.70782 8.03206 2.69449 4.08888 -2.68241 -4.5887 1 1
100 1 1.78286 8.91429 0 0 0 0 1 3
101 1 0.932102 9.82764 2.65384 1.44643 -3.01068 -5.33928 1 1
102 1 2.67429 9.80572 0.891429 0 0 0 1 2
103 1 1.81554 10.7045 1.75817 3.20033 -1.6229 1.24011 1 1
104 1 3.59785 8.90235 1.80914 7.19757 -1.9911 1.7724 1 1
105 1 3.56572 7.13143 0 0 0 0 1 3
106 1 4.45714 8.02286 0.891429 0 0 0 1 2
107 1 6.27329 8.0641 2.6319 -0.620308 4.14156 0.260735 1 1
108 1 5.34857 8.91429 0 0 0 0 1 3
109 1 4.49378 9.8124 2.66813 4.74327 11.1907 1.49969 1 1
110 1 6.24 9.80572 0.891429 0 0 0 1 2
111 1 7.1334 8.92456 1.76385 3.22677 2.00959 -0.40931 1 1
112 1 8.92598 7.11334 1.78538 14.316 -6.32889 -2.62305 1 1
113 1 7.13143 7.13143 0 0 0 0 1 3
114 1 8.02286 8.02286 0.891429 0 0 0 1 2
115 1 9.83097 8.03373 2.69734 -2.36197 -4.06321 11.0295 1 1
116 1 8.02967 9.80253 2.67133 7.5893 -1.75954 -3.77324 1 1
117 1 8.91429 8.91429 0 0 0 0 1 3
118 1 9.80572 9.80572 0.891429 0 0 0 1 2
119 1 10.7104 8.93361 1.78607 -1.77258 2.59339 -5.42519 1 1
120 1 12.4995 7.13435 1.82127 3.84805 3.32381 4.66999 1 1
121 1 10.6971 7.13143 0 0 0 0 1 3
122 1 11.5886 8.02286 0.891429 0 0 0 1 2
123 1 13.3667 8.00954 2.724 -12.1965 -6.07311 -0.501115 1 1
124 1 12.48 8.91429 0 0 0 0 1 3
125 1 11.5935 9.79991 2.67165 7.86734 0.0385751 -4.04547 1 1
126 1 13.3714 9.80572 0.891429 0 0 0 1 2
127 1 12.5164 10.6964 1.79016 -3.45716 0.330764 -0.632759 1 1
128 1 16.0528 7.13048 1.78779 5.12475 -0.61219 5.65923 1 1
129 1 14.2488 8.92342 1.81482 7.38194 -2.31109 0.977517 1 1
130 1 14.2629 7.13143 0 0 0 0 1 3
131 1 15.1543 8.02286 0.891429 0 0 0 1 2
132 1 16.9493 8.03907 2.72543 -3.29147 2.35075 5.65117 1 1
133 1 16.0457 8.91429 0 0 0 0 1 3
134 1 15.1713 9.83938 2.6464 2.6872 -4.93034 5.55918 1 1
135 1 16.9371 9.80572 0.891429 0 0 0 1 2
136 1 16.052 10.6729 1.78483 -3.90094 -7.04158 2.90136 1 1
137 1 17.8259 8.92261 1.83671 1.95071 1.56648 -1.58544 1 1
138 1 0.0269303 8.96152 1.81554 -1.11726 7.06354 -9.25143 1 1
139 1 17.8286 7.13143 0 0 0 0 1 3
140 1 18.72 8.02286 0.891429 0 0 0 1 2
141 1 20.5385 8.00913 2.64716 5.80354 -6.81878 -0.950566 1 1
142 1 19.6114 8.91429 0 0 0 0 1 3
143 1 18.7098 9.79264 2.64497 -0.526017 5.41135 3.64323 1 1
144 1 20.5029 9.80572 0.891429 0 0 0 1 2
145 1 0 10.6971 0 0 0 0 1 3
146 1 1.78286 12.48 0 0 0 0 1 3
147 1 0.891429 11.5886 0.891429 0 0 0 1 2
148 1 2.70609 11.6048 2.67561 -0.504784 -1.46498 1.21024 1 1
149 1 0.857194 13.3807 2.65638 2.07304 -4.7488 -0.352957 1 1
150 1 2.67429 13.3714 0.891429 0 0 0 1 2
151 1 0.00780606 12.4743 1.79583 -0.29858 1.23907 1.06183 1 1
152 1 5.33971 10.6786 1.77022 7.56502 -2.90205 4.00487 1 1
153 1 3.58475 12.4944 1.73744 -0.336778 -5.43713 0.721921 1 1
154 1 3.56572 10.6971 0 0 0 0 1 3
155 1 5.34857 12.48 0 0 0 0 1 3
156 1 4.45714 11.5886 0.891429 0 0 0 1 2
157 1 6.27085 11.5823 2.65632 1.99069 5.02533 -3.73762 1 1
158 1 4.48152 13.3805 2.61877 -3.74871 1.36959 1.46275 1 1
159 1 6.24 13.3714 0.891429 0 0 0 1 2
160 1 5.32979 14.3182 1.75021 -0.195441 -1.9237 4.25382 1 1
161 1 8.89978 10.7037 1.7807 2.37674 -5.79794 -0.357883 1 1
162 1 7.12301 12.4624 1.72706 1.19744 -2.37723 0.0971741 1 1
163 1 7.13143 10.6971 0 0 0 0 1 3
164 1 8.02286 11.5886 0.891429 0 0 0 1 2
165 1 8.91429 12.48 0 0 0 0 1 3
166 1 9.80904 11.5805 2.67637 -1.0044 9.61014 6.00325 1 1
167 1 8.04767 13.3739 2.66777 2.55003 3.00199 -4.12161 1 1
168 1 9.80572 13.3714 0.891429 0 0 0 1 2
169 1 10.7205 12.4746 1.77576 -2.33017 3.02876 1.21349 1 1
170 1 10.6971 10.6971 0 0 0 0 1 3
171 1 12.48 12.48 0 0 0 0 1 3
172 1 11.5886 11.5886 0.891429 0 0 0 1 2
173 1 13.405 11.6045 2.68899 6.23261 -4.87378 6.13683 1 1
174 1 11.6017 13.373 2.7203 2.05543 5.04193 -3.09742 1 1
175 1 13.3714 13.3714 0.891429 0 0 0 1 2
176 1 12.5044 14.2554 1.82648 -5.30066 -0.807923 -2.60471 1 1
177 1 14.3011 12.4858 1.77819 2.41405 1.68883 -5.48114 1 1
178 1 14.2629 10.6971 0 0 0 0 1 3
179 1 16.0457 12.48 0 0 0 0 1 3
180 1 15.1543 11.5886 0.891429 0 0 0 1 2
181 1 16.9718 11.5751 2.62773 3.69879 0.268894 -5.58643 1 1
182 1 15.1819 13.3537 2.67231 3.39596 7.89036 -11.7124 1 1
183 1 16.9371 13.3714 0.891429 0 0 0 1 2
184 1 17.8055 12.4966 1.74698 5.2432 9.95267 6.00112 1 1
185 1 19.6209 10.6907 1.78718 -2.64119 -5.91548 -0.509489 1 1
186 1 17.8286 10.6971 0 0 0 0 1 3
187 1 19.6114 12.48 0 0 0 0 1 3
188 1 18.72 11.5886 0.891429 0 0 0 1 2
189 1 20.5228 11.5946 2.68661 4.6746 3.78402 -13.4241 1 1
190 1 18.6924 13.3496 2.67362 -1.11991 0.95278 -6.30099 1 1
191 1 20.5029 13.3714 0.891429 0 0 0 1 2
192 1 19.6099 14.2604 1.8057 -4.50926 -2.62332 2.58283 1 1
193 1 1.77158 14.2704 1.79221 6.34266 -0.559076 -4.57668 1 1
194 1 0 14.2629 0 0 0 0 1 3
195 1 1.78286 16.0457 0 0 0 0 1 3
196 1 0.891429 15.1543 0.891429 0 0 0 1 2
197 1 0.843599 16.9711 2.65132 -4.35525 0.873674 2.13406 1 1
198 1 2.6506 15.1849 2.68332 7.24587 -7.62534 -4.07575 1 1
199 1 2.67429 16.9371 0.891429 0 0 0 1 2
200 1 21.3537 16.0665 1.797 8.479 2.82467 -5.33767 1 1
201 1 3.51489 16.052 1.77272 -6.59446 4.521 -3.93329 1 1
202 1 3.56572 14.2629 0 0 0 0 1 3
203 1 5.34857 16.0457 0 0 0 0 1 3
204 1 4.45714 15.1543 0.891429 0 0 0 1 2
205 1 4.44089 16.9465 2.6538 -3.41426 3.45091 -5.89766 1 1
206 1 6.24245 15.1485 2.67686 13.9832 1.77808 8.97902 1 1
207 1 6.24 16.9371 0.891429 0 0 0 1 2
208 1 7.11245 16.0271 1.77148 3.60778 2.53713 -2.86553 1 1
209 1 5.3396 17.8432 1.78658 -0.679922 3.10684 -3.89501 1 1
210 1 8.91987 14.2864 1.78789 -3.06904 -2.85127 -1.29556 1 1
211 1 7.13143 14.2629 0 0 0 0 1 3
212 1 8.02286 15.1543 0.891429 0 0 0 1 2
213 1 8.00059 16.9682 2.65248 -8.22433 -3.72888 1.55006 1 1
214 1 8.91429 16.0457 0 0 0 0 1 3
215 1 9.80272 15.1534 2.68429 4.79477 0.567971 -0.271707 1 1
216 1 9.80572 16.9371 0.891429 0 0 0 1 2
217 1 8.87716 17.8301 1.79728 3.15164 6.27 -8.63648 1 1
218 1 10.7306 16.0488 1.79453 0.76748 3.14645 -3.97216 1 1
219 1 10.6971 14.2629 0 0 0 0 1 3
220 1 12.48 16.0457 0 0 0 0 1 3
221 1 11.5886 15.1543 0.891429 0 0 0 1 2
222 1 11.5972 16.9697 2.67517 9.15753 -5.62119 -3.37873 1 1
223 1 13.4351 15.1286 2.69819 -0.694232 -1.4814 -2.93786 1 1
224 1 13.3714 16.9371 0.891429 0 0 0 1 2
225 1 12.4755 17.8187 1.75137 -1.02791 2.18484 -1.41642 1 1
226 1 16.0431 14.2412 1.77041 2.00246 5.37839 2.02423 1 1
227 1 14.2433 16.0151 1.79377 -12.7543 -0.94896 -3.93475 1 1
228 1 14.2629 14.2629 0 0 0 0 1 3
229 1 16.0457 16.0457 0 0 0 0 1 3
230 1 15.1543 15.1543 0.891429 0 0 0 1 2
231 1 15.1276 16.9637 2.69215 -0.501951 -5.4767 -7.76256 1 1
232 1 16.9514 15.1686 2.70451 0.689521 9.93391 3.32832 1 1
233 1 16.9371 16.9371 0.891429 0 0 0 1 2
234 1 17.8189 16.0689 1.8134 -4.40116 0.359417 8.22581 1 1
235 1 17.8286 14.2629 0 0 0 0 1 3
236 1 19.6114 16.0457 0 0 0 0 1 3
237 1 18.72 15.1543 0.891429 0 0 0 1 2
238 1 18.7137 16.9541 2.71341 -1.42421 1.14496 -1.57243 1 1
239 1 20.4553 15.1449 2.68063 9.76971 4.33636 -9.02234 1 1
240 1 20.5029 16.9371 0.891429 0 0 0 1 2
241 1 19.6251 17.7893 1.78729 -4.27443 2.09873 1.71544 1 1
242 1 1.78283 17.8072 1.72973 6.23993 3.05485 -7.04882 1 1
243 1 0 17.8286 0 0 0 0 1 3
244 1 1.78286 19.6114 0 0 0 0 1 3
245 1 0.891429 18.72 0.891429 0 0 0 1 2
246 1 0.900815 20.4751 2.64045 -4.13479 7.20203 -2.29665 1 1
247 1 2.64026 18.7115 2.63046 -4.22083 0.277752 1.8054 1 1
248 1 2.67429 20.5029 0.891429 0 0 0 1 2
249 1 3.53498 19.6542 1.75035 2.42497 5.79331 -1.6171 1 1
250 1 -0.000463565 19.6127 1.77439 -4.10199 5.144 2.96035 1 1
251 1 5.38621 21.3866 1.77508 -1.53403 2.06041 1.12744 1 1
252 1 3.56572 17.8286 0 0 0 0 1 3
253 1 5.34857 19.6114 0 0 0 0 1 3
254 1 4.45714 18.72 0.891429 0 0 0 1 2
255 1 4.4592 20.5055 2.68168 -5.74511 2.48236 -5.07652 1 1
256 1 6.2325 18.6941 2.68774 5.98125 -2.06545 -3.29251 1 1
257 1 6.24 20.5029 0.891429 0 0 0 1 2
258 1 7.10253 19.6509 1.77683 -7.38191 3.04754 4.74941 1 1
259 1 7.13143 17.8286 0 0 0 0 1 3
260 1 8.02286 18.72 0.891429 0 0 0 1 2
261 1 8.00668 20.4965 2.69719 5.77172 -5.47604 1.66766 1 1
262 1 8.91429 19.6114 0 0 0 0 1 3
263 1 9.76606 18.7379 2.68799 2.19063 6.14036 3.45738 1 1
264 1 9.80572 20.5029 0.891429 0 0 0 1 2
265 1 10.7093 19.559 1.78998 -4.04862 -1.51613 -4.33141 1 1
266 1 12.4458 21.3833 1.75956 10.005 -3.64785 -8.23513 1 1
267 1 10.6971 17.8286 0 0 0 0 1 3
268 1 12.48 19.6114 0 0 0 0 1 3
269 1 11.5886 18.72 0.891429 0 0 0 1 2
270 1 11.5498 20.4339 2.66072 2.05406 -4.17853 5.04465 1 1
271 1 13.3213 18.6957 2.66619 1.18811 -0.0399895 8.87676 1 1
272 1 13.3714 20.5029 0.891429 0 0 0 1 2
273 1 14.2108 19.613 1.8104 8.05806 -0.223181 7.44849 1 1
274 1 16.0647 17.8278 1.80435 0.65172 1.83928 3.48464 1 1
275 1 14.2629 17.8286 0 0 0 0 1 3
276 1 16.0457 19.6114 0 0 0 0 1 3
277 1 15.1543 18.72 0.891429 0 0 0 1 2
278 1 15.1348 20.4949 2.66734 3.33879 -9.86512 -9.81981 1 1
279 1 16.9144 18.6983 2.68313 -8.95199 5.59636 1.31811 1 1
280 1 16.9371 20.5029 0.891429 0 0 0 1 2
281 1 19.6101 0.0422802 1.78154 -10.0194 7.7247 -3.04792 1 1
282 1 17.82 19.632 1.7808 -7.19473 -0.506811 -3.08577 1 1
283 1 17.8286 17.8286 0 0 0 0 1 3
284 1 19.6114 19.6114 0 0 0 0 1 3
285 1 18.72 18.72 0.891429 0 0 0 1 2
286 1 18.73 20.5249 2.66484 6.94928 3.74126 -4.79607 1 1
287 1 20.4887 18.7209 2.6986 -6.07433 2.5333 -5.2339 1 1
288 1 20.5029 20.5029 0.891429 0 0 0 1 2
289 1 1.78175 1.77052 3.59289 -6.41548 8.87319 0.0429546 1 1
290 1 0.872638 0.866341 4.49559 1.22665 0.466291 -0.588533 1 1
291 1 2.69363 2.69968 4.49418 -2.18994 -2.87371 -1.39031 1 1
292 1 1.77622 21.3094 5.37671 -2.04318 -2.42754 -0.109451 1 1
293 1 1.78179 3.61553 5.3318 -1.31856 1.83801 -3.21637 1 1
294 1 -0.00718727 1.78969 5.32496 -8.48314 2.13954 0.350699 1 1
295 1 0.021033 21.3631 3.54838 -4.47746 6.86562 -0.161216 1 1
296 1 3.59523 1.81744 5.40629 3.4969 -4.27169 -5.61286 1 1
297 1 5.35494 1.77393 3.57382 5.50983 -1.41542 8.06355 1 1
298 1 4.46752 0.877778 4.47711 -6.48457 6.61895 5.57568 1 1
299 1 6.2441 0.878483 6.25886 2.41513 -0.914407 -9.28581 1 1
300 1 6.29137 2.66076 4.50364 -2.89712 7.3227 1.54803 1 1
301 1 3.58078 21.3951 3.54779 -3.95128 4.43898 1.55356 1 1
302 1 7.14056 0.0346864 3.57486 4.98441 -1.54788 0.257064 1 1
303 1 5.35293 21.394 5.36444 -4.14993 5.58273 -6.31775 1 1
304 1 7.13506 3.54238 3.60978 5.61171 1.29176 7.77037 1 1
305 1 7.1057 1.73126 5.35931 -2.84759 6.29771 1.50993 1 1
306 1 8.92804 1.79261 3.54897 -1.85578 -0.804074 -0.383872 1 1
307 1 8.05483 0.860707 4.44287 -6.27971 1.78154 2.33793 1 1
308 1 8.05452 2.63362 6.2407 -12.4432 5.29824 -8.29751 1 1
309 1 9.7985 0.901797 6.22644 3.4683 0.949257 -4.36186 1 1
310 1 9.76788 2.64736 4.45924 -2.36772 5.40081 -5.35073 1 1
311 1 10.733 1.78099 5.35156 -0.11961 7.63129 2.06174 1 1
312 1 12.4475 1.73001 3.55751 9.87249 2.44977 3.19035 1 1
313 1 11.5442 0.881738 4.44192 -6.7476 -0.10341 -2.54089 1 1
314 1 11.5939 2.66957 6.25651 2.71656 11.2682 -1.05793 1 1
315 1 13.343 2.63347 4.4352 1.4648 7.57043 -5.28122 1 1
316 1 13.3451 0.89077 6.27735 0.00853648 2.52222 4.25157 1 1
317 1 12.5093 3.5275 5.33408 2.24479 1.97329 -8.01957 1 1
318 1 14.2631 1.78589 5.3816 6.12439 -0.669518 1.64403 1 1
319 1 12.4317 21.4293 5.3284 4.37523 9.97958 -5.92482 1 1
320 1 14.2522 3.54018 3.56547 8.50518 -10.3172 5.86782 1 1
321 1 15.9815 1.79508 3.54237 4.63633 -4.36594 0.201902 1 1
322 1 15.1103 0.865259 4.4091 3.42702 5.56148 -2.57454 1 1
323 1 15.1403 2.65125 6.25528 6.00779 0.0922725 2.18101 1 1
324 1 16.9003 2.66304 4.48409 -1.45188 7.14472 2.91923 1 1
325 1 17.8169 1.81515 5.34337 6.86573 -1.58828 -4.34846 1 1
326 1 16.0077 21.3991 5.32658 2.89025 6.00052 -5.82064 1 1
327 1 19.6147 1.81088 3.59479 -2.49626 1.3507 -11.9017 1 1
328 1 18.6845 0.938582 4.48313 1.01112 -7.52711 -0.708373 1 1
329 1 20.4628 2.6888 4.49841 -0.340161 0.650591 -1.97389 1 1
330 1 17.7985 0.0411015 3.58984 -0.836131 6.73236 2.49793 1 1
331 1 19.5913 0.0431725 5.35385 4.95182 -1.02879 1.10431 1 1
332 1 0.0098981 3.6214 3.58681 -2.41229 -2.1277 -1.56569 1 1
333 1 1.80369 5.37555 3.51316 2.99247 5.52204 6.52815 1 1
334 1 0.890676 4.50201 4.42049 5.20483 -3.18927 -4.4972 1 1
335 1 2.69031 4.50146 6.27605 -4.19388 -5.14441 -1.8087 1 1
336 1 2.70208 6.29662 4.44469 6.24511 5.49141 -0.250865 1 1
337 1 3.56602 3.59431 3.61766 6.79571 -8.00242 6.73867 1 1
338 1 0.0247961 5.40159 5.37064 -6.0546 0.0155337 -3.26827 1 1
339 1 3.58266 5.35357 5.32328 6.51533 3.74574 -0.443896 1 1
340 1 5.43031 3.54309 5.41583 7.80615 -1.13425 -2.34735 1 1
341 1 5.39376 5.33581 3.64753 3.5646 1.27211 4.88307 1 1
342 1 4.43865 4.40084 4.53358 -3.80825 0.190718 0.769539 1 1
343 1 4.47777 6.245 6.21871 -0.783888 -3.86903 0.775259 1 1
344 1 6.26797 6.2303 4.46856 1.38792 0.438238 4.35976 1 1
345 1 7.11957 5.30946 5.36876 9.19993 -0.487179 1.20911 1 1
346 1 5.37749 7.09936 5.30136 7.36096 -2.42008 4.65372 1 1
347 1 6.24365 4.43371 6.27688 -2.60377 -1.56168 8.75986 1 1
348 1 8.87923 3.57909 5.37141 -5.54343 -3.36501 -6.34049 1 1
349 1 10.6375 3.5073 3.57722 -1.41015 -2.3554 6.30775 1 1
350 1 8.91961 5.29059 3.56031 3.43513 -2.38623 5.89768 1 1
351 1 7.98787 4.41748 4.47797 -0.0327257 4.18787 1.13273 1 1
352 1 8.0075 6.15981 6.24524 -6.78831 3.42181 -0.98941 1 1
353 1 9.78956 4.44331 6.27617 -3.3649 10.8583 1.40229 1 1
354 1 9.80498 6.24111 4.47427 -11.6745 -0.765027 6.27135 1 1
355 1 10.6938 5.33864 5.41842 3.67558 -1.94468 7.06192 1 1
356 1 12.4554 5.29814 3.61562 -2.6804 2.70322 -7.33897 1 1
357 1 11.5864 4.40865 4.49208 6.37736 5.71204 -1.64221 1 1
358 1 13.4174 6.21215 4.4852 1.44062 -1.63818 2.65709 1 1
359 1 14.292 5.33543 5.38237 5.39715 -4.99227 -5.22996 1 1
360 1 15.9959 3.62064 5.3513 3.09972 1.41049 -6.39001 1 1
361 1 17.815 3.5526 3.60662 -7.40176 -3.33505 0.818844 1 1
362 1 16.003 5.38044 3.58127 -2.62123 0.00495855 2.65095 1 1
363 1 15.1176 4.46683 4.47525 0.352742 -2.60926 0.91673 1 1
364 1 16.9078 6.26757 4.45606 -8.41979 -8.19346 -6.4008 1 1
365 1 16.9147 4.5126 6.2436 0.535296 7.56015 -4.99969 1 1
366 1 16.0577 7.1694 5.36146 0.379066 0.0873193 2.34565 1 1
367 1 15.1835 6.26621 6.23638 -4.08259 -1.98753 -8.49097 1 1
368 1 19.6017 3.61794 5.38384 1.20703 6.21122 -3.67765 1 1
369 1 17.8202 5.36353 5.3353 3.96782 -0.138157 -7.80255 1 1
370 1 19.5975 5.35204 3.59143 11.8593 -1.4963 -7.41572 1 1
371 1 18.7221 4.51836 4.44061 1.32171 -3.25468 -0.209705 1 1
372 1 20.4999 4.50506 6.28258 9.53552 1.93904 2.85755 1 1
373 1 20.5146 6.25446 4.4432 -1.4194 1.63486 -8.56822 1 1
374 1 19.5988 7.08789 5.33915 0.000744651 -4.37266 1.25189 1 1
375 1 0.013235 7.14515 3.56945 -0.931163 4.40424 -4.97751 1 1
376 1 1.78796 7.12943 5.37452 0.812452 -2.54024 -2.05354 1 1
377 1 1.84458 8.90947 3.60621 -1.94349 -1.32551 -3.54237 1 1
378 1 0.887177 8.02337 4.48721 3.00467 -1.53469 -9.69932 1 1
379 1 2.69017 8.01744 6.22076 2.05993 -2.20048 -0.943193 1 1
380 1 0.896483 9.77157 6.24973 4.18684 7.79716 -7.8426 1 1
381 1 2.70991 9.83752 4.4217 -3.53595 2.43136 -5.18576 1 1
382 1 21.3953 8.92626 5.35086 2.65354 -2.79568 -6.15521 1 1
383 1 1.82078 10.6897 5.37188 -6.39034 3.71206 -0.103591 1 1
384 1 3.59821 7.13817 3.54198 0.841886 3.58291 3.01703 1 1
385 1 7.09506 7.10523 3.60903 -0.241886 1.19385 -1.3904 1 1
386 1 3.58873 10.6921 3.56681 0.591334 -0.747494 -0.0258216 1 1
387 1 3.57425 8.90544 5.28526 -1.16459 -6.16629 -1.90933 1 1
388 1 5.37013 8.93854 3.58529 4.03908 -1.66753 1.07091 1 1
389 1 4.49038 8.01529 4.43739 -4.55085 8.05742 3.25844 1 1
390 1 4.44652 9.7931 6.25428 7.18612 -18.4456 -4.98442 1 1
391 1 6.27821 9.81173 4.46031 -4.27883 -4.0181 -4.99438 1 1
392 1 8.92573 7.06501 5.36897 -5.174 3.36798 4.62924 1 1
393 1 7.14534 8.87851 5.38029 4.0099 -3.97969 0.603948 1 1
394 1 8.95969 8.89793 3.60269 -8.57422 2.84758 -6.42759 1 1
395 1 8.02643 7.97926 4.52753 0.492213 -7.89404 7.96779 1 1
396 1 9.80123 9.78585 4.44478 1.15401 -6.28448 -4.64726 1 1
397 1 10.6795 8.89436 5.3544 3.60749 8.48283 7.06635 1 1
398 1 10.6606 10.6916 3.54496 0.196593 -1.00461 -3.71452 1 1
399 1 9.79753 8.01029 6.24249 -4.32974 -1.0135 2.66071 1 1
400 1 12.4803 7.10517 5.32728 10.6769 5.31518 0.564974 1 1
401 1 10.6856 7.0965 3.57463 -2.93073 -8.24196 -0.142309 1 1
402 1 12.4505 8.90366 3.55628 -4.68822 -2.39569 1.98323 1 1
403 1 11.5819 7.96083 4.46722 1.17728 -4.04122 -1.63522 1 1
404 1 13.3673 9.75945 4.42692 -1.97281 3.27734 2.14579 1 1
405 1 14.2941 7.12602 3.54112 0.644872 -3.31948 -2.97263 1 1
406 1 14.2644 8.91513 5.33335 -2.44415 -1.01299 4.21585 1 1
407 1 17.8477 7.19377 3.5548 2.06514 0.266515 6.34148 1 1
408 1 16.0239 8.91856 3.53359 4.02952 3.62336 0.730708 1 1
409 1 15.1581 8.05345 4.42032 7.05198 8.09635 -5.54756 1 1
410 1 16.8741 9.79636 4.4867 2.6205 5.37225 -2.81096 1 1
411 1 16.0114 10.6679 5.38006 -6.87139 -6.45471 -4.89471 1 1
412 1 16.9357 8.02135 6.29925 0.949392 -3.41619 -9.47968 1 1
413 1 17.8015 8.88573 5.38106 -4.14746 -1.07394 -3.86809 1 1
414 1 19.5997 8.90632 3.52759 -5.54257 1.33827 3.56849 1 1
415 1 18.7171 7.99654 4.48326 -2.19176 -1.4753 3.6788 1 1
416 1 18.7175 9.79822 6.22216 5.50066 -1.73245 -3.7341 1 1
417 1 20.4938 9.79926 4.45104 -1.40442 4.54911 0.681191 1 1
418 1 20.4817 7.9945 6.18839 -0.389175 15.4209 -1.88134 1 1
419 1 19.6203 10.6728 5.33754 1.72736 -0.335644 0.0313421 1 1
420 1 21.4055 10.6829 3.56744 6.40442 -9.34829 1.82617 1 1
421 1 1.73291 12.4815 3.55899 3.51556 -7.84519 4.11699 1 1
422 1 0.890558 11.5658 4.47756 4.78129 3.51372 -4.25214 1 1
423 1 2.66607 11.573 6.23943 0.690102 0.81882 -16.0485 1 1
424 1 0.865666 13.345 6.26307 9.69285 1.03801 -11.159 1 1
425 1 2.64283 13.3315 4.45967 -6.1115 -3.78768 3.82199 1 1
426 1 0.00890949 12.4835 5.34144 -2.49911 3.15066 -4.91536 1 1
427 1 5.32436 10.6967 5.32357 -5.54814 -5.05886 -3.82404 1 1
428 1 3.60903 14.2648 3.54232 2.62668 0.682023 -2.40678 1 1
429 1 3.53022 12.4602 5.3476 0.606705 -2.06616 0.189623 1 1
430 1 5.36528 12.4605 3.52495 5.5281 -9.488 0.156804 1 1
431 1 4.46043 11.6127 4.41556 8.54889 1.78157 -8.07758 1 1
432 1 6.24439 13.4322 4.44106 -2.94774 -7.73963 4.04764 1 1
433 1 7.16369 14.2758 3.54482 -1.62912 -9.29475 -8.93135 1 1
434 1 6.21948 11.6103 6.19717 4.31179 -1.33143 -4.38435 1 1
435 1 7.12116 10.7018 3.55418 1.64156 1.05532 5.55608 1 1
436 1 7.1109 12.4947 5.32242 -2.30582 1.74211 -1.69418 1 1
437 1 8.94105 10.6969 5.35217 -4.06458 2.76619 -4.45476 1 1
438 1 8.91384 12.5068 3.55844 -5.69291 -6.87526 2.15057 1 1
439 1 8.03175 11.5952 4.46391 6.00337 -0.3351 -1.80573 1 1
440 1 9.82713 11.6258 6.21517 0.389905 -12.0522 -1.6658 1 1
441 1 7.97888 13.427 6.26219 5.23225 -8.17242 6.45188 1 1
442 1 9.82579 13.3743 4.41875 7.4582 5.48115 -2.54794 1 1
443 1 10.7162 14.2752 3.55802 0.637672 -9.5422 -4.65076 1 1
444 1 12.4716 10.663 5.3466 -6.79781 -10.1761 7.03416 1 1
445 1 10.7219 12.5183 5.34733 -2.86468 -3.04119 5.14422 1 1
446 1 12.4894 12.4455 3.57734 5.75155 6.85412 3.75655 1 1
447 1 11.5457 11.5757 4.43841 6.56434 2.69031 2.87404 1 1
448 1 13.3726 11.6029 6.24335 -0.0994041 -0.259908 3.41415 1 1
449 1 11.6069 13.4031 6.24198 -0.0854937 1.56366 -4.70354 1 1
450 1 13.364 13.3866 4.46648 -1.99412 7.59534 -0.441188 1 1
451 1 14.2808 10.7068 3.55249 -4.14108 1.4485 -2.76746 1 1
452 1 14.3168 12.4966 5.35491 2.93615 8.04322 1.934 1 1
453 1 16.0852 12.4763 3.56359 -1.9562 9.18363 -0.867124 1 1
454 1 15.1978 11.554 4.45611 -9.25447 2.89835 -0.828823 1 1
455 1 16.9518 11.5538 6.23819 -8.61573 4.19021 -2.42999 1 1
456 1 16.9693 13.3335 4.47101 -2.25059 3.79402 -3.86755 1 1
457 1 17.8363 12.4498 5.35526 -4.75132 2.60622 8.60885 1 1
458 1 15.2307 13.3272 6.26057 -5.22412 -3.6979 8.28355 1 1
459 1 17.852 10.6672 3.55475 -0.419715 9.47258 -0.620414 1 1
460 1 19.6124 12.4693 3.59395 -1.24163 1.85323 -0.9636 1 1
461 1 18.7238 11.5669 4.45873 -2.83297 0.27171 2.99015 1 1
462 1 18.7718 13.3419 6.30025 6.16683 2.07085 -6.71533 1 1
463 1 20.4602 13.3938 4.47106 3.40548 -1.23568 4.7251 1 1
464 1 20.5007 11.5445 6.25117 4.42992 0.789085 -8.65231 1 1
465 1 1.73927 14.2232 5.40926 -5.06117 -2.37124 1.48026 1 1
466 1 1.78851 16.0882 3.58392 7.7401 -7.95263 -1.59476 1 1
467 1 0.890676 15.1621 4.4609 0.112205 2.71922 -2.11046 1 1
468 1 2.63534 15.1367 6.25811 2.94485 -9.18239 3.00767 1 1
469 1 2.67493 16.9447 4.42117 1.91665 -3.17371 0.941904 1 1
470 1 21.3673 16.0402 5.31605 -1.35987 -1.95337 -0.487809 1 1
471 1 21.3605 14.2622 3.54814 0.500275 -0.469681 -0.304716 1 1
472 1 1.81565 17.8393 5.298 -12.8584 -4.81074 7.52574 1 1
473 1 5.34601 14.2774 5.36369 5.74289 -4.0673 6.5472 1 1
474 1 3.56319 16.0608 5.30983 -3.63498 3.13641 2.03513 1 1
475 1 5.31539 16.056 3.58362 5.77622 -0.474352 3.63058 1 1
476 1 4.48805 15.1226 4.4236 -4.74688 1.07013 -5.27691 1 1
477 1 4.45093 16.9169 6.24949 -4.86038 -10.6405 -0.780704 1 1
478 1 6.17109 15.148 6.24763 -13.6454 -4.74834 -2.87823 1 1
479 1 6.14658 16.9291 4.46449 -6.39728 2.82218 7.15873 1 1
480 1 7.11253 16.0503 5.35958 -2.00136 1.48853 4.03811 1 1
481 1 8.89711 14.2937 5.31896 8.30111 -2.73661 -9.24606 1 1
482 1 8.84044 16.0625 3.56757 4.13724 2.10067 -2.02656 1 1
483 1 7.97383 15.2222 4.4428 1.91023 -2.36128 1.3449 1 1
484 1 8.00049 16.8951 6.27156 5.82962 -3.37609 -2.61983 1 1
485 1 9.80327 15.1919 6.21794 5.77416 1.10673 -4.2182 1 1
486 1 9.80509 16.9025 4.48212 -5.31072 -9.96617 -2.62237 1 1
487 1 10.6918 16.0595 5.32937 2.88689 0.119442 -4.87656 1 1
488 1 8.92032 17.7788 5.39021 4.54537 -3.27089 -3.20761 1 1
489 1 10.6855 17.8723 3.57155 -5.88435 -1.63593 -7.06334 1 1
490 1 12.4969 14.2983 5.33446 -5.01115 -0.166804 -3.20595 1 1
491 1 12.4705 16.0733 3.52376 -1.30125 4.81239 2.61085 1 1
492 1 11.5936 15.1631 4.4538 -4.8711 -2.52416 6.02735 1 1
493 1 11.5933 16.93 6.26643 5.59089 1.89957 -3.28654 1 1
494 1 13.3403 16.9441 4.44566 5.38825 -1.80732 2.24864 1 1
495 1 13.4001 15.1432 6.25264 0.96878 1.28118 1.74463 1 1
496 1 12.4443 17.8494 5.37493 1.31064 -6.56154 3.53386 1 1
497 1 14.2808 14.2362 3.54004 -11.6461 7.66012 -5.67214 1 1
498 1 16.0565 14.2485 5.36401 -1.92405 0.774871 8.94636 1 1
499 1 17.8339 14.2978 3.55561 4.49528 8.42703 1.31481 1 1
500 1 14.2852 16.0223 5.36084 -7.18824 -1.4343 -11.1829 1 1
501 1 14.2285 17.8359 3.53857 4.6358 4.87172 11.033 1 1
502 1 16.0352 16.066 3.56258 7.30314 -2.65208 4.92156 1 1
503 1 15.208 15.1406 4.48406 5.20284 -1.43974 0.880236 1 1
504 1 16.9003 16.9392 4.47125 -0.806539 3.07609 -3.38408 1 1
505 1 16.9685 15.1318 6.31319 0.740056 -2.90076 0.265814 1 1
506 1 17.8204 16.0703 5.36872 -3.90547 5.77509 0.181601 1 1
507 1 19.6249 14.2257 5.36484 -7.54813 1.52088 -1.46386 1 1
508 1 19.5802 16.07 3.59255 -6.07184 0.777877 -5.41221 1 1
509 1 18.7128 15.1422 4.51519 4.52042 3.79891 -3.34076 1 1
510 1 20.5098 16.9497 4.48885 1.70072 5.01002 1.04097 1 1
511 1 19.6209 17.8531 5.31094 -1.82915 -3.15898 5.54099 1 1
512 1 20.4936 15.1455 6.28116 14.7434 1.41538 3.23718 1 1
513 1 1.78436 19.6055 3.55083 1.5661 1.2347 -8.17053 1 1
514 1 0.903467 18.7348 4.45389 2.77969 3.45311 7.611 1 1
515 1 0.870456 20.472 6.25997 6.03401 7.20183 -0.69463 1 1
516 1 2.68827 20.4953 4.44915 3.03488 0.636752 -1.00468 1 1
517 1 21.4063 17.8385 3.53424 3.97221 9.13218 -2.89669 1 1
518 1 21.3773 19.6077 5.35661 -2.87977 -3.1608 3.81059 1 1
519 1 2.7051 18.7131 6.23476 -2.07336 -4.14287 1.43123 1 1
520 1 5.31749 17.7816 5.30133 -4.14905 -1.57409 4.84053 1 1
521 1 3.56123 17.8676 3.50057 1.94231 -0.681884 0.753635 1 1
522 1 3.53789 19.5659 5.33858 -1.82441 -3.93109 -0.12158 1 1
523 1 5.38166 19.6051 3.56411 1.23413 0.435032 -1.72731 1 1
524 1 4.46547 18.6948 4.43714 0.78044 -3.95633 -7.21793 1 1
525 1 4.44536 20.467 6.26157 5.771 -10.2231 -5.21573 1 1
526 1 6.28045 18.6717 6.25038 -2.5811 -7.38563 2.42297 1 1
527 1 6.22624 20.503 4.46787 -8.20585 -2.65202 -1.71149 1 1
528 1 7.11598 17.8195 3.61648 3.9016 6.18131 -0.789315 1 1
529 1 7.16256 19.6081 5.32799 -1.51854 4.70242 -2.2647 1 1
530 1 8.92616 21.4028 5.35404 2.92428 11.4842 -2.85237 1 1
531 1 8.90425 19.5988 3.60109 -5.65182 -1.24122 5.36021 1 1
532 1 8.00779 18.6666 4.46705 2.71984 4.23104 -3.55066 1 1
533 1 8.07159 20.5217 6.18903 -5.7796 8.56551 -1.54977 1 1
534 1 9.81657 18.7221 6.233 -0.268291 6.2127 -4.96767 1 1
535 1 9.79617 20.4918 4.47874 2.95034 -2.52698 -3.33748 1 1
536 1 10.6835 19.6245 5.3748 -1.047 6.53735 2.69746 1 1
537 1 10.6657 21.3728 3.54735 2.25539 1.58079 -7.23591 1 1
538 1 12.4703 19.548 3.52815 -0.731521 -0.620935 2.126 1 1
539 1 11.5398 18.7726 4.47704 4.53036 1.25845 -0.315096 1 1
540 1 13.3796 18.7284 6.27327 0.97784 1.6428 -2.96853 1 1
541 1 13.357 20.4658 4.47583 0.319746 -2.65042 -4.02827 1 1
542 1 16.0236 17.8386 5.34267 0.660462 5.07483 -4.07721 1 1
543 1 14.2166 21.3605 3.54661 -4.77574 0.189091 0.722467 1 1
544 1 14.2514 19.6053 5.41216 9.7013 6.57262 7.31088 1 1
545 1 16.0036 19.6182 3.56624 3.75067 0.119581 5.28104 1 1
546 1 15.0971 18.7295 4.48206 6.98064 -3.99542 9.18647 1 1
547 1 16.9778 18.7013 6.28597 -0.674821 -2.54097 6.02173 1 1
548 1 16.9061 20.4538 4.48259 1.45764 7.42031 -0.328088 1 1
549 1 17.8219 19.6095 5.37026 10.5526 2.20011 2.90277 1 1
550 1 17.8169 17.8314 3.58212 -1.83698 1.96124 -7.64685 1 1
551 1 19.6332 19.5848 3.58075 -1.06011 6.70817 -4.60049 1 1
552 1 18.7056 18.7159 4.48861 -2.47624 4.34764 -4.24217 1 1
553 1 18.6964 20.5815 6.26376 -10.3818 -5.30425 0.963146 1 1
554 1 20.4768 18.6928 6.20715 -6.58441 -2.40871 -0.170321 1 1
555 1 20.5109 20.5027 4.48481 -5.25213 1.92717 4.91774 1 1
556 1 2.67413 0.868929 6.25531 -0.576298 -2.93697 1.97314 1 1