ITEM: TIMESTEP
1250
ITEM: NUMBER OF ATOMS
2952
ITEM: BOX BOUNDS pp pp mm
0.0000000000000000e+00 2.1394294200000001e+01
0.0000000000000000e+00 2.1394294200000001e+01
-4.4571446250000002e-01 5.3485735500000004e+01
ITEM: ATOMS id type x y z vx vy vz v_is_diamond c_structure_type
1 1 0 0 0 0 0 0 1 3
2 1 1.78286 1.78286 0 0 0 0 1 3
3 1 0.891429 0.891429 0.891429 0 0 0 1 2
4 1 0.905356 2.69848 2.6628 -2.40536 9.84051 -4.49569 1 1
5 1 2.66126 0.880124 2.66234 -2.91693 3.90718 3.44538 1 1
6 1 2.67429 2.67429 0.891429 0 0 0 1 2
7 1 0.0149956 1.81469 1.7386 -4.62124 -0.35591 -6.22793 1 1
8 1 1.78372 21.3729 1.76927 4.17638 1.84053 3.03676 1 1
9 1 1.78723 3.57393 1.78978 1.76248 4.31011 5.71344 1 1
10 1 3.55449 1.82139 1.78316 -3.96007 -0.765072 -3.83476 1 1
11 1 3.56572 0 0 0 0 0 1 3
12 1 5.34857 1.78286 0 0 0 0 1 3
13 1 4.45714 0.891429 0.891429 0 0 0 1 2
14 1 4.48061 2.68355 2.66442 6.92902 -13.9647 3.912 1 1
15 1 6.25531 0.888882 2.68251 1.91819 5.24721 -3.47518 1 1
16 1 6.24 2.67429 0.891429 0 0 0 1 2
17 1 7.11679 1.81258 1.75882 2.11449 -3.54889 4.89417 1 1
18 1 7.13143 0 0 0 0 0 1 3
19 1 8.02286 0.891429 0.891429 0 0 0 1 2
20 1 8.0267 2.67428 2.6722 -6.16037 -8.20376 -3.75224 1 1
21 1 8.91429 1.78286 0 0 0 0 1 3
22 1 9.80783 0.864303 2.63421 0.369678 -0.751403 0.0930134 1 1
23 1 9.80572 2.67429 0.891429 0 0 0 1 2
24 1 8.91883 0.000186494 1.76902 3.11326 -10.6251 9.40124 1 1
25 1 10.6868 1.7915 1.76591 5.26833 3.50263 3.30702 1 1
26 1 10.6971 0 0 0 0 0 1 3
27 1 12.48 1.78286 0 0 0 0 1 3
28 1 11.5886 0.891429 0.891429 0 0 0 1 2
29 1 11.5636 2.63392 2.6724 -8.24665 0.772702 2.13852 1 1
30 1 13.3713 0.878812 2.60822 0.74427 -3.71551 -5.27092 1 1
31 1 13.3714 2.67429 0.891429 0 0 0 1 2
32 1 14.2553 1.78485 1.78678 -7.4987 0.398179 4.59065 1 1
33 1 14.2629 0 0 0 0 0 1 3
34 1 16.0457 1.78286 0 0 0 0 1 3
35 1 15.1543 0.891429 0.891429 0 0 0 1 2
36 1 15.1998 2.66036 2.64089 0.686577 0.76498 11.5105 1 1
37 1 16.9776 0.902074 2.63926 -8.81665 6.193 5.50929 1 1
38 1 16.9371 2.67429 0.891429 0 0 0 1 2
39 1 16.0274 0.0100333 1.81626 -4.15481 -5.49399 -6.494 1 1
40 1 17.8235 1.76175 1.78778 7.76788 0.0762353 0.542594 1 1
41 1 17.8286 0 0 0 0 0 1 3
42 1 19.6114 1.78286 0 0 0 0 1 3
43 1 18.72 0.891429 0.891429 0 0 0 1 2
44 1 18.7234 2.66153 2.65073 8.25822 3.80537 -0.21144 1 1
45 1 20.5419 0.886439 2.67022 1.33413 -5.09391 -3.12633 1 1
46 1 20.5029 2.67429 0.891429 0 0 0 1 2
47 1 0 3.56572 0 0 0 0 1 3
48 1 1.78286 5.34857 0 0 0 0 1 3
49 1 0.891429 4.45714 0.891429 0 0 0 1 2
50 1 0.863488 6.23196 2.69828 -3.46896 4.85404 2.07855 1 1
51 1 2.6895 4.44414 2.64432 0.0892054 0.36001 -7.94466 1 1
52 1 2.67429 6.24 0.891429 0 0 0 1 2
53 1 3.5822 5.34221 1.78011 -2.08412 2.68913 -7.13261 1 1
54 1 5.34474 3.54386 1.78479 -2.78527 7.15579 -6.66755 1 1
55 1 3.56572 3.56572 0 0 0 0 1 3
56 1 5.34857 5.34857 0 0 0 0 1 3
57 1 4.45714 4.45714 0.891429 0 0 0 1 2
58 1 4.47709 6.23985 2.6393 -4.53133 4.09258 2.10385 1 1
59 1 6.2369 4.43489 2.65153 5.20953 -3.69864 7.34933 1 1
60 1 6.24 6.24 0.891429 0 0 0 1 2
61 1 5.36063 7.13972 1.76404 -4.40251 -0.877476 7.73353 1 1
62 1 7.16418 5.36489 1.76358 -4.519 1.71976 12.0603 1 1
63 1 7.13143 3.56572 0 0 0 0 1 3
64 1 8.91992 3.57989 1.82241 3.07089 -3.09648 -2.89496 1 1
65 1 8.02286 4.45714 0.891429 0 0 0 1 2
66 1 8.08951 6.19354 2.67695 -3.9673 -0.629317 6.99949 1 1
67 1 8.91429 5.34857 0 0 0 0 1 3
68 1 9.81185 4.44113 2.74151 0.836781 -3.67651 -5.89389 1 1
69 1 9.80572 6.24 0.891429 0 0 0 1 2
70 1 10.6775 5.3411 1.78224 7.51387 -4.175 1.01164 1 1
71 1 12.4798 3.5519 1.7656 2.62552 -3.8099 3.98717 1 1
72 1 10.6971 3.56572 0 0 0 0 1 3
73 1 12.48 5.34857 0 0 0 0 1 3
74 1 11.5886 4.45714 0.891429 0 0 0 1 2
75 1 11.5818 6.26204 2.66341 2.59838 -0.56388 -9.46786 1 1
76 1 13.3545 4.53112 2.66967 -0.182076 0.502437 8.1452 1 1
77 1 13.3714 6.24 0.891429 0 0 0 1 2
78 1 14.2454 5.32256 1.77682 -1.95135 0.880564 -3.11909 1 1
79 1 16.054 3.56115 1.72656 -4.15749 -3.53441 1.08106 1 1
80 1 14.2629 3.56572 0 0 0 0 1 3
81 1 16.0457 5.34857 0 0 0 0 1 3
82 1 15.1543 4.45714 0.891429 0 0 0 1 2
83 1 15.168 6.24371 2.63134 2.95084 -1.88651 -0.810415 1 1
84 1 16.9163 4.4815 2.62358 2.25079 0.916666 -7.51453 1 1
85 1 16.9371 6.24 0.891429 0 0 0 1 2
86 1 17.8302 5.38405 1.77377 1.82334 -8.00292 3.09065 1 1
87 1 19.6005 3.59618 1.77369 -2.4724 1.32153 -4.75454 1 1
88 1 0.00868476 5.38239 1.80021 -1.07246 7.64629 1.89643 1 1
89 1 17.8286 3.56572 0 0 0 0 1 3
90 1 19.6114 5.34857 0 0 0 0 1 3
91 1 18.72 4.45714 0.891429 0 0 0 1 2
92 1 18.7328 6.25405 2.67523 -5.35322 1.244 -1.21498 1 1
93 1 20.5154 4.49801 2.63753 -1.48859 2.04904 9.22456 1 1
94 1 20.5029 6.24 0.891429 0 0 0 1 2
95 1 19.6086 7.16694 1.78713 4.6053 -7.57869 -1.72939 1 1
96 1 1.78173 7.13396 1.76222 0.965514 -5.01605 -0.733067 1 1
97 1 0 7.13143 0 0 0 0 1 3
98 1 0.891429 8.02286 0.891429 0 0 0 1 2
99 1 2.67453 8.01949 2.6496 1.8156 -5.72274 0.398332 1 1
100 1 1.78286 8.91429 0 0 0 0 1 3
101 1 0.90974 9.79478 2.68456 0.808162 2.77267 -12.7598 1 1
102 1 2.67429 9.80572 0.891429 0 0 0 1 2
103 1 1.78337 10.7369 1.82591 6.52458 1.94153 0.337839 1 1
104 1 3.57667 8.90097 1.75931 0.361152 -3.37228 -0.252488 1 1
105 1 3.56572 7.13143 0 0 0 0 1 3
106 1 4.45714 8.02286 0.891429 0 0 0 1 2
107 1 6.25679 8.04812 2.68694 2.59712 3.94272 -9.3957 1 1
108 1 5.34857 8.91429 0 0 0 0 1 3
109 1 4.4189 9.80946 2.63293 2.57781 -4.84717 -4.89684 1 1
110 1 6.24 9.80572 0.891429 0 0 0 1 2
111 1 7.14395 8.9269 1.77305 -6.72702 4.75616 6.27828 1 1
112 1 8.91573 7.10881 1.77218 -3.8094 7.79352 4.25814 1 1
113 1 7.13143 7.13143 0 0 0 0 1 3
114 1 8.02286 8.02286 0.891429 0 0 0 1 2
115 1 9.80704 8.06763 2.66248 3.28523 2.09408 6.75651 1 1
116 1 8.02461 9.82248 2.66012 -5.37193 10.0808 2.23105 1 1
117 1 8.91429 8.91429 0 0 0 0 1 3
118 1 9.80572 9.80572 0.891429 0 0 0 1 2
119 1 10.6883 8.93406 1.73471 0.41512 0.503528 3.39625 1 1
120 1 12.4271 7.13836 1.77667 5.58995 -7.57619 2.54123 1 1
121 1 10.6971 7.13143 0 0 0 0 1 3
122 1 11.5886 8.02286 0.891429 0 0 0 1 2
123 1 13.3506 8.01658 2.65477 -3.35076 -2.53105 0.724449 1 1
124 1 12.48 8.91429 0 0 0 0 1 3
125 1 11.5657 9.84292 2.64407 1.72508 -0.528421 -8.80832 1 1
126 1 13.3714 9.80572 0.891429 0 0 0 1 2
127 1 12.4834 10.6887 1.79803 -1.31338 2.5202 -4.7772 1 1
128 1 16.0315 7.16119 1.72853 -6.79036 1.27673 1.40516 1 1
129 1 14.2692 8.92832 1.80266 3.71095 4.18246 -10.2873 1 1
130 1 14.2629 7.13143 0 0 0 0 1 3
131 1 15.1543 8.02286 0.891429 0 0 0 1 2
132 1 16.9813 7.98597 2.65825 6.49895 -2.78937 -4.01352 1 1
133 1 16.0457 8.91429 0 0 0 0 1 3
134 1 15.1869 9.81125 2.67528 2.43958 -4.00828 -6.32404 1 1
135 1 16.9371 9.80572 0.891429 0 0 0 1 2
136 1 16.0041 10.7044 1.80116 -8.73595 5.27231 -5.21963 1 1
137 1 17.8377 8.96671 1.75872 0.716941 3.48253 -6.78376 1 1
138 1 0.0348551 8.91644 1.77309 2.40742 -1.65109 2.17486 1 1
139 1 17.8286 7.13143 0 0 0 0 1 3
140 1 18.72 8.02286 0.891429 0 0 0 1 2
141 1 20.5082 8.02469 2.69043 0.770505 -1.98378 6.07227 1 1
142 1 19.6114 8.91429 0 0 0 0 1 3
143 1 18.7295 9.83156 2.69407 -0.554275 -11.2475 0.15522 1 1
144 1 20.5029 9.80572 0.891429 0 0 0 1 2
145 1 0 10.6971 0 0 0 0 1 3
146 1 1.78286 12.48 0 0 0 0 1 3
147 1 0.891429 11.5886 0.891429 0 0 0 1 2
148 1 2.67333 11.6709 2.70342 3.36669 -2.40894 -2.20325 1 1
149 1 0.879135 13.4391 2.69792 3.12444 -9.61565 -3.07834 1 1
150 1 2.67429 13.3714 0.891429 0 0 0 1 2
151 1 -0.0116998 12.5485 1.78939 -5.9922 1.62258 2.18556 1 1
152 1 5.33965 10.6934 1.76238 4.36229 -9.3598 0.881522 1 1
153 1 3.61862 12.5321 1.75223 0.941142 2.83878 -7.29452 1 1
154 1 3.56572 10.6971 0 0 0 0 1 3
155 1 5.34857 12.48 0 0 0 0 1 3
156 1 4.45714 11.5886 0.891429 0 0 0 1 2
157 1 6.21988 11.5999 2.64497 3.33252 2.87585 -8.32004 1 1
158 1 4.49316 13.3748 2.61367 4.56902 -1.15875 -1.23535 1 1
159 1 6.24 13.3714 0.891429 0 0 0 1 2
160 1 5.35333 14.2421 1.7683 8.04859 -3.45314 -9.64686 1 1
161 1 8.9535 10.6872 1.80323 -1.29019 -4.54196 -6.26597 1 1
162 1 7.15018 12.5025 1.77149 3.74266 -2.0075 -0.11519 1 1
163 1 7.13143 10.6971 0 0 0 0 1 3
164 1 8.02286 11.5886 0.891429 0 0 0 1 2
165 1 8.91429 12.48 0 0 0 0 1 3
166 1 9.83861 11.5674 2.66819 5.55129 -8.09962 5.28837 1 1
167 1 8.00861 13.3555 2.69378 2.80426 -3.64317 -1.91052 1 1
168 1 9.80572 13.3714 0.891429 0 0 0 1 2
169 1 10.6767 12.4849 1.78462 0.979092 6.13693 -2.10315 1 1
170 1 10.6971 10.6971 0 0 0 0 1 3
171 1 12.48 12.48 0 0 0 0 1 3
172 1 11.5886 11.5886 0.891429 0 0 0 1 2
173 1 13.39 11.5924 2.66681 4.73057 -0.799771 4.79553 1 1
174 1 11.5813 13.3663 2.70956 -0.0570883 4.0493 9.79993 1 1
175 1 13.3714 13.3714 0.891429 0 0 0 1 2
176 1 12.493 14.2551 1.83636 -3.10777 4.08385 1.7704 1 1
177 1 14.2506 12.4439 1.78349 7.3454 -2.14867 -3.24321 1 1
178 1 14.2629 10.6971 0 0 0 0 1 3
179 1 16.0457 12.48 0 0 0 0 1 3
180 1 15.1543 11.5886 0.891429 0 0 0 1 2
181 1 16.9118 11.6153 2.6553 2.0668 -0.943857 0.580813 1 1
182 1 15.1432 13.3521 2.6574 6.56297 1.47934 -3.41765 1 1
183 1 16.9371 13.3714 0.891429 0 0 0 1 2
184 1 17.7924 12.4807 1.74403 5.68276 -3.67168 -5.13211 1 1
185 1 19.6383 10.6912 1.78858 6.24955 0.0333212 -6.99875 1 1
186 1 17.8286 10.6971 0 0 0 0 1 3
187 1 19.6114 12.48 0 0 0 0 1 3
188 1 18.72 11.5886 0.891429 0 0 0 1 2
189 1 20.4996 11.5563 2.68266 -4.31943 0.555766 -0.460947 1 1
190 1 18.7214 13.3903 2.68079 2.29102 -2.74028 7.16294 1 1
191 1 20.5029 13.3714 0.891429 0 0 0 1 2
192 1 19.6023 14.2135 1.79817 -8.51906 2.84675 5.6495 1 1
193 1 1.77356 14.2769 1.73666 4.18809 0.14193 -3.63044 1 1
194 1 0 14.2629 0 0 0 0 1 3
195 1 1.78286 16.0457 0 0 0 0 1 3
196 1 0.891429 15.1543 0.891429 0 0 0 1 2
197 1 0.912049 16.9112 2.66247 -15.0755 -1.07407 -0.369851 1 1
198 1 2.66846 15.1397 2.66651 -7.5143 -1.47158 -1.25202 1 1
199 1 2.67429 16.9371 0.891429 0 0 0 1 2
200 1 0.011293 16.0242 1.74473 -3.20875 6.58755 4.62941 1 1
201 1 3.57402 16.0515 1.76288 4.96919 -5.39678 1.96087 1 1
202 1 3.56572 14.2629 0 0 0 0 1 3
203 1 5.34857 16.0457 0 0 0 0 1 3
204 1 4.45714 15.1543 0.891429 0 0 0 1 2
205 1 4.45522 16.9501 2.64006 -2.18948 0.0650028 9.22413 1 1
206 1 6.2589 15.1457 2.65812 -2.31705 12.7914 -3.585 1 1
207 1 6.24 16.9371 0.891429 0 0 0 1 2
208 1 7.11344 16.0282 1.78112 6.97805 5.45599 4.10911 1 1
209 1 5.36341 17.8532 1.78109 -7.56075 -0.0949241 -3.03066 1 1
210 1 8.89394 14.2813 1.81142 6.4403 -4.41361 0.088884 1 1
211 1 7.13143 14.2629 0 0 0 0 1 3
212 1 8.02286 15.1543 0.891429 0 0 0 1 2
213 1 8.03326 16.955 2.70986 9.73181 3.40783 4.061 1 1
214 1 8.91429 16.0457 0 0 0 0 1 3
215 1 9.79395 15.1393 2.71395 -3.4285 0.0580216 -2.25094 1 1
216 1 9.80572 16.9371 0.891429 0 0 0 1 2
217 1 8.95103 17.8727 1.81253 -1.66956 -0.279649 6.3076 1 1
218 1 10.6956 16.0422 1.79153 -2.52173 6.52098 -9.05647 1 1
219 1 10.6971 14.2629 0 0 0 0 1 3
220 1 12.48 16.0457 0 0 0 0 1 3
221 1 11.5886 15.1543 0.891429 0 0 0 1 2
222 1 11.5707 16.946 2.65302 -5.78377 5.7179 -3.95515 1 1
223 1 13.3673 15.1306 2.64845 4.89151 -5.32985 -0.640067 1 1
224 1 13.3714 16.9371 0.891429 0 0 0 1 2
225 1 12.4653 17.8299 1.76982 3.8086 -1.78571 4.93268 1 1
226 1 16.0385 14.3034 1.76896 5.01087 -0.480382 -4.12472 1 1
227 1 14.2368 16.051 1.81609 3.77868 4.22698 6.11544 1 1
228 1 14.2629 14.2629 0 0 0 0 1 3
229 1 16.0457 16.0457 0 0 0 0 1 3
230 1 15.1543 15.1543 0.891429 0 0 0 1 2
231 1 15.133 16.986 2.63064 10.6371 -0.383487 4.66842 1 1
232 1 16.9036 15.1836 2.70019 2.35852 -0.154932 6.65302 1 1
233 1 16.9371 16.9371 0.891429 0 0 0 1 2
234 1 17.8431 16.1129 1.76897 0.0127436 -9.66046 -1.17054 1 1
235 1 17.8286 14.2629 0 0 0 0 1 3
236 1 19.6114 16.0457 0 0 0 0 1 3
237 1 18.72 15.1543 0.891429 0 0 0 1 2
238 1 18.7305 16.9649 2.66773 -0.878126 0.907926 9.45217 1 1
239 1 20.4749 15.1675 2.63893 -2.27167 -7.78055 -0.0215422 1 1
240 1 20.5029 16.9371 0.891429 0 0 0 1 2
241 1 19.6205 17.8058 1.82045 0.342076 0.919427 3.42784 1 1
242 1 1.82921 17.8385 1.76608 -5.06573 -0.724896 4.82674 1 1
243 1 0 17.8286 0 0 0 0 1 3
244 1 1.78286 19.6114 0 0 0 0 1 3
245 1 0.891429 18.72 0.891429 0 0 0 1 2
246 1 0.896933 20.4747 2.69912 -9.03484 3.80952 0.931519 1 1
247 1 2.70666 18.6788 2.68549 6.03558 4.76248 0.592984 1 1
248 1 2.67429 20.5029 0.891429 0 0 0 1 2
249 1 3.56432 19.5942 1.7913 -6.18989 -7.43944 -7.55224 1 1
250 1 21.3776 19.5977 1.79191 2.91041 -10.2462 0.240097 1 1
251 1 5.29572 0.00547058 1.8071 -6.30933 0.280996 6.07475 1 1
252 1 3.56572 17.8286 0 0 0 0 1 3
253 1 5.34857 19.6114 0 0 0 0 1 3
254 1 4.45714 18.72 0.891429 0 0 0 1 2
255 1 4.45828 20.5089 2.63722 3.2039 -0.138107 -1.7451 1 1
256 1 6.27313 18.7597 2.68385 6.22016 -2.06994 0.45109 1 1
257 1 6.24 20.5029 0.891429 0 0 0 1 2
258 1 7.11854 19.6217 1.80078 -1.3952 -8.17398 -0.158863 1 1
259 1 7.13143 17.8286 0 0 0 0 1 3
260 1 8.02286 18.72 0.891429 0 0 0 1 2
261 1 8.03431 20.5114 2.6819 4.65741 -7.43233 -1.79525 1 1
262 1 8.91429 19.6114 0 0 0 0 1 3
263 1 9.81502 18.7335 2.66794 1.32389 2.78786 5.03577 1 1
264 1 9.80572 20.5029 0.891429 0 0 0 1 2
265 1 10.6628 19.6231 1.80366 -1.07757 3.06369 -2.57853 1 1
266 1 12.5111 0.0265354 1.78465 -2.78578 0.809435 -1.00104 1 1
267 1 10.6971 17.8286 0 0 0 0 1 3
268 1 12.48 19.6114 0 0 0 0 1 3
269 1 11.5886 18.72 0.891429 0 0 0 1 2
270 1 11.6248 20.4993 2.69571 -0.932096 -1.70014 -10.1209 1 1
271 1 13.3817 18.6843 2.63229 4.39872 4.50727 0.687985 1 1
272 1 13.3714 20.5029 0.891429 0 0 0 1 2
273 1 14.2826 19.5513 1.76158 0.42284 -2.14643 10.9303 1 1
274 1 16.0276 17.8341 1.74189 -1.0266 -6.09029 -2.21578 1 1
275 1 14.2629 17.8286 0 0 0 0 1 3
276 1 16.0457 19.6114 0 0 0 0 1 3
277 1 15.1543 18.72 0.891429 0 0 0 1 2
278 1 15.1081 20.4782 2.65433 2.34504 -4.94213 1.40062 1 1
279 1 16.9165 18.7072 2.6425 11.9503 -5.05246 -2.76902 1 1
280 1 16.9371 20.5029 0.891429 0 0 0 1 2
281 1 19.5991 0.0329581 1.80172 2.49067 -8.25304 -6.72477 1 1
282 1 17.8209 19.5895 1.76301 3.21709 -5.59556 -7.81764 1 1
283 1 17.8286 17.8286 0 0 0 0 1 3
284 1 19.6114 19.6114 0 0 0 0 1 3
285 1 18.72 18.72 0.891429 0 0 0 1 2
286 1 18.7556 20.4797 2.67035 -3.05736 -1.71928 4.17357 1 1
287 1 20.4863 18.6886 2.68923 4.37223 6.18493 1.64717 1 1
288 1 20.5029 20.5029 0.891429 0 0 0 1 2
289 1 1.79997 1.72703 3.55548 6.39257 -15.3905 -0.976053 1 1
290 1 0.863365 0.871929 4.42616 -0.40272 4.26591 7.55197 1 1
291 1 2.67571 2.61916 4.44514 5.33095 5.32443 -2.6573 1 1
292 1 1.74961 21.3879 5.30681 -6.42041 8.4143 5.23168 1 1
293 1 1.80329 3.53621 5.33191 -3.83118 -1.11939 -1.71412 1 1
294 1 0.0053419 1.76426 5.32098 -7.04339 0.771539 -0.726274 1 1
295 1 21.3689 21.3861 3.57903 10.1224 5.07759 -7.70036 1 1
296 1 3.52977 1.75383 5.30238 -11.2614 -1.07786 -0.967048 1 1
297 1 5.36557 1.77478 3.57514 -3.29885 7.34537 0.445813 1 1
298 1 4.46728 0.881377 4.41062 -2.63159 -5.26004 -9.30434 1 1
299 1 6.25253 0.914369 6.24105 2.66577 0.0362198 0.895578 1 1
300 1 6.26162 2.67734 4.47852 0.838875 -2.2643 -0.136927 1 1
301 1 3.55766 21.3585 3.56381 -1.30882 2.91123 8.24721 1 1
302 1 7.12873 0.027894 3.58306 -0.581724 4.83028 -2.2412 1 1
303 1 5.41586 21.3995 5.36355 4.92952 4.34352 4.04026 1 1
304 1 7.11102 3.5765 3.55639 -5.96083 -6.58309 8.11171 1 1
305 1 7.17712 1.78372 5.36725 1.70457 3.32987 -4.46737 1 1
306 1 8.91841 1.75643 3.5569 1.87202 -3.55633 -1.94572 1 1
307 1 8.0379 0.896313 4.51129 3.45731 1.97039 -5.52552 1 1
308 1 8.05162 2.6531 6.24614 0.78781 -5.17087 0.525696 1 1
309 1 9.84212 0.925471 6.2795 2.70367 -6.32249 -0.740204 1 1
310 1 9.80071 2.66153 4.45865 4.50833 7.73494 -6.60114 1 1
311 1 10.715 1.76965 5.36105 -3.86582 5.31027 -2.07721 1 1
312 1 12.4748 1.74862 3.54651 -8.22685 0.0622766 -0.600655 1 1
313 1 11.5775 0.85846 4.46992 -4.87434 -9.16934 -0.274468 1 1
314 1 11.6367 2.65148 6.21627 -0.563442 -2.72212 7.21488 1 1
315 1 13.4033 2.67588 4.44043 0.905099 2.67612 3.13017 1 1
316 1 13.4165 0.838527 6.19855 -3.64922 3.32567 -4.18818 1 1
317 1 12.5211 3.59003 5.33793 -1.49562 1.03448 -3.73397 1 1
318 1 14.2425 1.74284 5.27872 -7.64396 -7.33327 10.3528 1 1
319 1 12.4921 21.3793 5.32189 1.87039 -0.98925 -3.24816 1 1
320 1 14.2767 3.60864 3.54022 -5.23259 6.03111 1.72615 1 1
321 1 16.0792 1.77071 3.55724 0.931026 -3.34819 -4.90416 1 1
322 1 15.1576 0.85114 4.3843 -4.85108 -0.406768 -5.24035 1 1
323 1 15.1682 2.66464 6.19708 1.09997 -0.252993 -1.03241 1 1
324 1 17.0214 2.6979 4.41572 1.89015 1.10166 -4.53016 1 1
325 1 17.8077 1.80166 5.31775 4.17804 0.785355 5.65055 1 1
326 1 16.0128 21.3475 5.28514 2.79804 0.659329 3.28126 1 1
327 1 19.6331 1.78582 3.53775 -1.82108 -7.95329 5.15554 1 1
328 1 18.7261 0.864966 4.39259 -1.54591 3.92806 -0.422141 1 1
329 1 20.5308 2.67796 4.40555 1.35366 -0.577658 3.75466 1 1
330 1 17.8363 21.3554 3.54066 8.17084 -0.594125 5.84084 1 1
331 1 19.6384 21.319 5.31916 -1.37489 -6.43993 2.11474 1 1
332 1 -0.00128899 3.55808 3.57311 -4.11255 4.11331 -6.67817 1 1
333 1 1.80366 5.36156 3.56083 -3.62952 9.55323 -4.59709 1 1
334 1 0.892534 4.45882 4.45575 -1.72452 -2.56598 -1.03718 1 1
335 1 2.65995 4.48823 6.22291 1.06938 -6.85471 5.50525 1 1
336 1 2.6808 6.23567 4.39456 -11.689 2.70084 -8.0086 1 1
337 1 3.5559 3.54837 3.56225 3.08674 -4.43045 2.73777 1 1
338 1 0.0017736 5.30052 5.34595 0.273509 2.59452 -1.61499 1 1
339 1 3.54608 5.34719 5.31019 1.43894 0.476978 -3.90715 1 1
340 1 5.34184 3.55562 5.38974 3.86023 -1.99599 -0.28157 1 1
341 1 5.34547 5.31179 3.5359 5.01737 -6.51701 1.65377 1 1
342 1 4.493 4.41543 4.4316 -7.75476 -5.28724 1.92064 1 1
343 1 4.47343 6.18628 6.23673 -0.466565 -2.32819 1.02686 1 1
344 1 6.24583 6.20164 4.40766 10.2891 0.510549 3.77568 1 1
345 1 7.12956 5.3525 5.30624 -2.75324 -1.49763 2.87124 1 1
346 1 5.32256 7.07751 5.31302 -2.90853 3.17315 3.78764 1 1
347 1 6.24791 4.44816 6.20471 1.72736 5.26488 5.89578 1 1
348 1 8.91487 3.59294 5.32132 -1.84827 1.09627 -2.43108 1 1
349 1 10.6449 3.54564 3.58543 0.539674 1.9473 -4.15765 1 1
350 1 8.942 5.34398 3.56991 -4.71641 -6.92731 -3.50413 1 1
351 1 8.02707 4.48646 4.42949 6.32115 -3.0184 6.35721 1 1
352 1 8.00217 6.26113 6.18497 3.87225 -2.56693 5.14902 1 1
353 1 9.82606 4.48111 6.20234 3.28938 1.11301 -5.28047 1 1
354 1 9.80868 6.24633 4.45164 0.803222 -7.05632 7.21123 1 1
355 1 10.682 5.33052 5.34647 1.61182 -1.54584 -2.98865 1 1
356 1 12.4615 5.40199 3.57886 -4.94011 -6.64663 -3.15028 1 1
357 1 11.6053 4.49148 4.47263 -0.30572 -5.39194 -1.73712 1 1
358 1 13.3878 6.25309 4.40571 0.267347 0.627166 0.927237 1 1
359 1 14.2923 5.36394 5.31391 -4.59078 -3.36739 0.0811005 1 1
360 1 16.0209 3.57759 5.27774 -15.8742 2.51745 -7.11976 1 1
361 1 17.8754 3.5899 3.56612 -1.64139 -7.13517 -3.30208 1 1
362 1 16.0447 5.36568 3.5001 -7.88389 -0.115417 -3.76009 1 1
363 1 15.1778 4.47788 4.378 -2.84343 -6.18408 1.85179 1 1
364 1 16.9518 6.22534 4.40962 -2.13116 -6.29815 -2.46994 1 1
365 1 16.9148 4.46787 6.16087 -3.25535 -4.95366 -2.23295 1 1
366 1 16.0277 7.10109 5.35447 -7.63457 0.283738 -4.23173 1 1
367 1 15.1239 6.20902 6.24553 1.03867 2.13012 -2.72079 1 1
368 1 19.6754 3.59175 5.30659 -0.162325 2.77469 -8.51107 1 1
369 1 17.8336 5.37865 5.34187 -1.72257 6.07903 -1.80741 1 1
370 1 19.5964 5.39778 3.54728 -1.14374 4.06338 -5.47521 1 1
371 1 18.7244 4.47573 4.45729 1.43052 -4.65058 4.71135 1 1
372 1 20.504 4.46404 6.2017 1.37324 -1.39207 1.35638 1 1
373 1 20.5116 6.24561 4.4864 -10.0439 -6.52896 -4.41218 1 1
374 1 19.6059 7.10093 5.34343 -2.64981 4.06986 2.33435 1 1
375 1 21.4067 7.16292 3.56408 5.52137 -3.66651 -3.34567 1 1
376 1 1.81768 7.15563 5.28428 0.592181 3.07896 7.07697 1 1
377 1 1.77743 8.93303 3.53426 -0.773573 0.662407 0.213693 1 1
378 1 0.93614 8.02113 4.45232 -0.833705 -1.37385 -3.17234 1 1
379 1 2.66493 7.961 6.21305 -3.91561 -1.64494 -6.63863 1 1
380 1 0.885901 9.8541 6.1964 2.43993 2.44311 -3.99271 1 1
381 1 2.72039 9.84204 4.42053 1.29957 -0.610969 -3.71974 1 1
382 1 0.0494154 8.91223 5.31066 0.0537407 4.65014 -7.15999 1 1
383 1 1.74657 10.7248 5.34126 2.49149 2.92626 9.79594 1 1
384 1 3.57285 7.13775 3.47405 -10.2258 -5.08888 -6.60343 1 1
385 1 7.09826 7.11038 3.58531 -2.62847 -5.28846 -2.40426 1 1
386 1 3.57963 10.7354 3.56028 3.31268 -1.79711 4.21385 1 1
387 1 3.57044 8.88405 5.32412 -3.30209 0.543767 4.76939 1 1
388 1 5.32001 8.93574 3.53567 -0.639857 2.52058 -5.57684 1 1
389 1 4.47312 8.08014 4.40343 4.85353 -2.204 -2.12397 1 1
390 1 4.42391 9.80519 6.18262 6.75369 -6.8189 -0.46095 1 1
391 1 6.23469 9.81849 4.38649 -1.70313 -3.45414 -9.50348 1 1
392 1 8.92569 7.1485 5.35816 -2.85491 -3.53475 -0.899695 1 1
393 1 7.14208 8.91217 5.33131 -1.74654 7.20927 -2.0574 1 1
394 1 8.90467 8.93077 3.55181 0.489736 6.17195 1.90547 1 1
395 1 8.04628 8.02526 4.4402 -0.420957 6.41908 0.212017 1 1
396 1 9.80459 9.80283 4.46063 1.10316 3.04081 10.7348 1 1
397 1 10.7189 8.91856 5.34445 9.14117 3.11423 -1.36451 1 1
398 1 10.7104 10.6607 3.53718 -6.11138 1.09444 -2.07587 1 1
399 1 9.79198 8.03924 6.25001 -0.497389 0.0744047 -5.71372 1 1
400 1 12.5022 7.09554 5.31224 12.1272 1.87732 -0.0876636 1 1
401 1 10.6687 7.18745 3.52842 -3.45276 -2.38434 -1.1444 1 1
402 1 12.4815 8.91613 3.55932 3.01242 3.94088 -4.05733 1 1
403 1 11.6027 8.03348 4.46451 1.32704 -1.61194 -0.179323 1 1
404 1 13.3898 9.8128 4.47748 -4.76244 0.773018 -5.5408 1 1
405 1 14.2592 7.17135 3.52924 -4.20161 -2.78682 -5.48928 1 1
406 1 14.2748 8.85927 5.31337 -2.41595 0.291541 2.04681 1 1
407 1 17.8352 7.17348 3.58429 -9.47028 -0.658618 4.34434 1 1
408 1 16.0231 8.90567 3.57732 -5.73454 -5.25115 -5.64876 1 1
409 1 15.1471 7.98724 4.48446 0.150771 2.68016 1.44582 1 1
410 1 16.9156 9.79616 4.43949 -7.01324 1.22372 1.95272 1 1
411 1 16.0739 10.6904 5.34266 3.3624 0.28597 -1.18966 1 1
412 1 16.9602 8.02864 6.24598 -3.92582 0.559895 -2.62575 1 1
413 1 17.7905 8.88104 5.3094 -1.19571 -4.92058 -0.229234 1 1
414 1 19.6161 8.89329 3.56951 3.21225 2.20468 -4.29949 1 1
415 1 18.7207 8.02433 4.45036 0.898931 2.20467 -0.751829 1 1
416 1 18.684 9.8218 6.19019 0.568192 0.157348 0.283366 1 1
417 1 20.4719 9.7353 4.47083 2.87705 -3.83846 3.95917 1 1
418 1 20.5387 8.06144 6.22727 3.51285 -2.39407 0.0822091 1 1
419 1 19.5906 10.6919 5.34646 3.48743 5.48068 -3.57355 1 1
420 1 0.00563124 10.7059 3.58616 -0.00389305 3.11379 -2.47231 1 1
421 1 1.8224 12.5367 3.5725 7.70137 7.2526 -6.52114 1 1
422 1 0.872713 11.6334 4.47209 0.821142 3.43427 -0.678519 1 1
423 1 2.71279 11.5975 6.27285 4.15081 -0.692396 6.82628 1 1
424 1 0.878516 13.3285 6.24175 0.731901 -4.45214 4.60191 1 1
425 1 2.73306 13.3846 4.43068 -4.03893 5.72929 -0.967512 1 1
426 1 0.0130389 12.5096 5.35792 -1.52116 -1.84141 -1.15616 1 1
427 1 5.3666 10.7255 5.31457 1.50078 -2.0926 6.15394 1 1
428 1 3.59879 14.2571 3.56228 -2.3403 -8.84327 -6.17319 1 1
429 1 3.61292 12.493 5.31689 3.10721 0.925987 -2.33628 1 1
430 1 5.3716 12.5285 3.52625 -8.41142 -4.84273 6.57904 1 1
431 1 4.51412 11.5996 4.42543 -0.704292 -1.26257 2.73417 1 1
432 1 6.24104 13.4184 4.45417 -0.901814 -0.29599 -7.14215 1 1
433 1 7.13101 14.2601 3.62259 1.17134 1.17128 2.3934 1 1
434 1 6.24405 11.5975 6.2354 15.0151 -2.26535 -5.27184 1 1
435 1 7.13447 10.7003 3.49142 -2.49999 -7.79627 -1.08123 1 1
436 1 7.15872 12.4927 5.36123 -3.02839 -3.24834 -4.79341 1 1
437 1 8.85019 10.696 5.34703 -4.39425 -0.290822 2.70357 1 1
438 1 8.92679 12.4398 3.53795 1.3006 6.07801 0.716414 1 1
439 1 8.03847 11.5977 4.42449 11.4847 2.00682 9.30475 1 1
440 1 9.75679 11.5518 6.23537 1.59277 7.23126 -11.824 1 1
441 1 8.07363 13.3513 6.20517 -1.94689 -8.21587 2.81344 1 1
442 1 9.79143 13.3194 4.43617 -3.42832 4.87044 -8.65846 1 1
443 1 10.6661 14.2482 3.58944 1.14901 5.91611 0.433306 1 1
444 1 12.502 10.6808 5.35449 -13.3647 3.16878 -9.16283 1 1
445 1 10.6699 12.441 5.37295 4.05748 6.3066 1.08956 1 1
446 1 12.5139 12.4731 3.58377 -6.05967 -4.9161 -8.23783 1 1
447 1 11.5804 11.5302 4.48198 -4.42155 5.78335 -0.417668 1 1
448 1 13.367 11.5846 6.24391 -7.72037 7.70126 -0.431132 1 1
449 1 11.5411 13.308 6.21444 -2.73616 6.51033 0.61384 1 1
450 1 13.3916 13.3305 4.46306 -2.99494 -0.58962 -5.51638 1 1
451 1 14.2701 10.7038 3.55813 1.12856 -3.21014 -0.632219 1 1
452 1 14.2964 12.475 5.34023 8.28101 0.517402 2.64866 1 1
453 1 16.0433 12.4829 3.51713 -2.24778 -3.12563 -6.55289 1 1
454 1 15.1672 11.6087 4.44089 -0.557672 -5.0895 4.52188 1 1
455 1 16.9186 11.6001 6.22851 4.49117 -4.78785 2.885 1 1
456 1 16.9512 13.4137 4.443 -1.74381 -2.19444 -1.72729 1 1
457 1 17.7954 12.4884 5.36052 6.82178 1.75592 2.21422 1 1
458 1 15.1604 13.348 6.23208 -5.04707 0.428173 -1.20282 1 1
459 1 17.8341 10.707 3.53756 -1.20297 0.832406 -4.16357 1 1
460 1 19.619 12.4291 3.54348 1.99206 -1.62366 -5.29535 1 1
461 1 18.7016 11.5835 4.43775 12.3286 -2.85797 0.909395 1 1
462 1 18.6735 13.4026 6.23692 -1.33579 0.265501 -1.57908 1 1
463 1 20.4947 13.3769 4.40862 -1.0586 0.279984 2.13318 1 1
464 1 20.4987 11.6263 6.25038 -8.52061 1.04525 5.2644 1 1
465 1 1.82085 14.2117 5.34256 6.04348 3.62741 -3.37162 1 1
466 1 1.77391 16.0244 3.58571 -2.15289 -5.0009 -2.1356 1 1
467 1 0.838378 15.1443 4.43507 -3.5901 7.33634 -5.24261 1 1
468 1 2.68024 15.1293 6.20963 -4.50272 3.94731 -3.07766 1 1
469 1 2.72603 16.9032 4.51237 -1.49326 0.229069 3.43436 1 1
470 1 21.3636 16.0773 5.36257 -4.29305 1.88998 -3.0583 1 1
471 1 21.358 14.2978 3.53214 4.26524 1.10829 -2.86638 1 1
472 1 1.82736 17.8083 5.34312 5.01696 -1.90551 1.37934 1 1
473 1 5.32409 14.2614 5.33116 -0.888642 -3.06067 0.10791 1 1
474 1 3.5629 15.9966 5.31275 2.08751 1.72695 6.69674 1 1
475 1 5.36741 16.0426 3.51742 8.9028 6.74888 -3.45542 1 1
476 1 4.4486 15.1641 4.41012 6.14136 -0.435744 0.37062 1 1
477 1 4.43614 16.8974 6.21419 -2.23359 0.859189 -3.44207 1 1
478 1 6.21156 15.1278 6.24818 -7.44899 -0.297614 5.86868 1 1
479 1 6.23942 16.9499 4.38974 -8.09629 -3.01069 7.63955 1 1
480 1 7.09995 16.0381 5.32861 -0.0520559 1.82564 1.92085 1 1
481 1 8.93619 14.2605 5.32069 -3.43066 0.285872 -6.49642 1 1
482 1 8.91963 16.0557 3.55078 3.00104 -9.89528 -4.97445 1 1
483 1 8.00688 15.1556 4.46924 -2.43641 -2.03413 -7.86495 1 1
484 1 7.95958 16.9593 6.21599 -6.30772 -9.99163 -2.33596 1 1
485 1 9.80036 15.1858 6.22623 -9.84523 -0.0884017 -7.38074 1 1
486 1 9.78325 16.9648 4.42596 0.561065 -0.359338 -9.54813 1 1
487 1 10.6715 16.0518 5.32511 1.90673 -5.44441 1.77704 1 1
488 1 8.86782 17.8341 5.3651 -6.76185 -0.957129 -3.25025 1 1
489 1 10.6791 17.8429 3.52471 -1.50339 -3.6886 3.62024 1 1
490 1 12.4933 14.217 5.32449 -8.63114 9.49716 -5.98837 1 1
491 1 12.4549 16.0232 3.53556 -5.76943 0.553967 6.7351 1 1
492 1 11.5876 15.1301 4.418 -9.50908 5.19357 0.126178 1 1
493 1 11.5878 16.9051 6.18451 -4.9445 -4.12974 7.33005 1 1
494 1 13.3414 16.934 4.41717 4.30784 -7.52062 3.06315 1 1
495 1 13.3619 15.1489 6.22246 0.050955 4.28132 -0.118083 1 1
496 1 12.4671 17.8103 5.3323 -7.3218 -1.97556 -6.12685 1 1
497 1 14.2782 14.2287 3.57661 4.94598 4.87977 -6.55993 1 1
498 1 16.0401 14.2719 5.33494 0.783209 2.07838 -4.37909 1 1
499 1 17.8176 14.3133 3.60447 6.30316 1.04019 -5.9585 1 1
500 1 14.2516 16.0708 5.3312 -3.10784 -2.96115 -1.61696 1 1
501 1 14.2272 17.8163 3.52805 1.93026 5.79628 -1.75 1 1
502 1 16.054 16.078 3.57459 -4.22894 1.97357 -1.56808 1 1
503 1 15.1338 15.1619 4.44017 -2.66218 -3.586 1.24348 1 1
504 1 16.9559 16.9279 4.41135 3.27201 -6.0799 -9.88441 1 1
505 1 16.9139 15.195 6.23962 5.3078 -5.76196 -0.889729 1 1
506 1 17.8427 16.0552 5.33864 -3.05341 2.22396 -4.95173 1 1
507 1 19.5937 14.2499 5.32382 3.30193 1.84534 6.30198 1 1
508 1 19.6025 16.0412 3.51214 -3.21789 -2.22226 7.75617 1 1
509 1 18.7467 15.1784 4.47071 -1.45907 2.33746 0.176772 1 1
510 1 20.4988 16.9142 4.45252 -9.79882 3.82256 -1.64002 1 1
511 1 19.5712 17.7925 5.323 12.1577 -2.2744 -6.22077 1 1
512 1 20.4656 15.126 6.21535 -0.0171234 -0.149613 2.58236 1 1
513 1 1.81415 19.5634 3.57513 0.333003 -7.6945 -6.07991 1 1
514 1 0.893872 18.6954 4.46261 -6.88007 -10.3218 -0.901393 1 1
515 1 0.908243 20.4751 6.19297 -0.27787 3.30121 -3.34766 1 1
516 1 2.67746 20.4686 4.46072 2.21022 2.64845 4.25469 1 1
517 1 0.0360651 17.7512 3.5207 3.04947 -4.48472 -0.0139575 1 1
518 1 -0.0142749 19.597 5.34624 -5.48107 -0.374206 0.264248 1 1
519 1 2.70484 18.7136 6.23121 -8.38258 0.0977597 1.91193 1 1
520 1 5.31954 17.8723 5.35924 -2.47464 -1.46876 -6.16012 1 1
521 1 3.60243 17.8081 3.59152 -0.840283 1.8383 8.03756 1 1
522 1 3.62964 19.5971 5.35776 3.3051 -5.21119 -11.3332 1 1
523 1 5.33939 19.6605 3.56168 0.183853 -1.71568 -2.68463 1 1
524 1 4.48643 18.7815 4.45462 1.40445 -4.50647 6.29373 1 1
525 1 4.50139 20.5219 6.24759 4.20141 -1.33368 -5.04535 1 1
526 1 6.23699 18.7625 6.22059 3.96485 -4.91757 -1.05326 1 1
527 1 6.2392 20.5018 4.41974 -4.21362 7.63307 2.18641 1 1
528 1 7.14912 17.8603 3.53997 -1.69703 0.876719 0.666259 1 1
529 1 7.1073 19.6074 5.33217 0.142165 -1.79809 -0.281984 1 1
530 1 8.92075 21.3489 5.38443 -1.66648 -0.20465 -8.38358 1 1
531 1 8.94164 19.5645 3.54776 -2.50307 -6.96695 -1.92733 1 1
532 1 8.03225 18.7322 4.42569 -1.09137 -5.30241 3.37098 1 1
533 1 8.01882 20.4767 6.19111 -5.10966 -0.806079 -0.434743 1 1
534 1 9.81022 18.6997 6.20712 0.61166 -0.630951 3.85302 1 1
535 1 9.78212 20.4842 4.44803 -3.93321 -1.67071 0.0538132 1 1
536 1 10.7064 19.601 5.33892 4.02177 -2.56988 2.70932 1 1
537 1 10.6718 -0.00607738 3.57773 -5.39776 -4.35516 -6.32575 1 1
538 1 12.4587 19.5962 3.54115 1.9821 2.00046 0.535175 1 1
539 1 11.6121 18.6749 4.45728 -2.45125 -1.55735 -3.42555 1 1
540 1 13.369 18.7281 6.23244 -4.26361 -5.01863 -1.3819 1 1
541 1 13.3924 20.4996 4.4262 1.12537 -1.91035 0.627187 1 1
542 1 16.0346 17.866 5.29881 -5.88636 2.98486 -1.7095 1 1
543 1 14.2453 -0.00704386 3.52621 -7.0757 -7.46146 -5.45673 1 1
544 1 14.2957 19.6029 5.29751 1.28568 7.75111 -0.660273 1 1
545 1 15.9977 19.6406 3.51654 -5.59702 -1.29223 -0.189878 1 1
546 1 15.1638 18.7639 4.44687 -2.55285 6.31799 0.4158 1 1
547 1 16.9712 18.7314 6.21381 -3.983 -0.723842 6.18318 1 1
548 1 16.905 20.5173 4.38493 -2.67225 6.76145 0.543077 1 1
549 1 17.8297 19.654 5.31772 -5.70997 -3.99653 -6.28876 1 1
550 1 17.8279 17.8144 3.54548 2.56786 -4.61185 1.96301 1 1
551 1 19.6415 19.5808 3.57918 7.42575 -6.514 -0.832249 1 1
552 1 18.6562 18.6912 4.44278 4.19751 1.92368 -1.37107 1 1
553 1 18.7199 20.4969 6.18775 2.14292 -1.06733 -0.631157 1 1
554 1 20.5122 18.707 6.21843 1.41952 2.23485 -1.7113 1 1
555 1 20.5148 20.473 4.44208 -6.56958 -3.32666 0.278566 1 1