ITEM: TIMESTEP
2300
ITEM: NUMBER OF ATOMS
2952
ITEM: BOX BOUNDS pp pp mm
0.0000000000000000e+00 2.1394294200000001e+01
0.0000000000000000e+00 2.1394294200000001e+01
-4.4571446250000002e-01 5.3485735500000004e+01
ITEM: ATOMS id type x y z vx vy vz v_is_diamond c_structure_type
1 1 0 0 0 0 0 0 1 3
2 1 1.78286 1.78286 0 0 0 0 1 3
3 1 0.891429 0.891429 0.891429 0 0 0 1 2
4 1 0.936489 2.63455 2.69882 1.92713 -0.891905 0.350852 1 1
5 1 2.6992 0.883976 2.6757 -5.39784 5.74996 0.263629 1 1
6 1 2.67429 2.67429 0.891429 0 0 0 1 2
7 1 0.0173122 1.80821 1.83481 -0.827906 -1.8328 4.25987 1 1
8 1 1.79562 0.0120059 1.77614 1.99383 -4.25198 -3.09757 1 1
9 1 1.80062 3.58021 1.77714 -0.896329 -1.14869 1.83813 1 1
10 1 3.58793 1.74142 1.8127 4.3856 3.11875 -0.891292 1 1
11 1 3.56572 0 0 0 0 0 1 3
12 1 5.34857 1.78286 0 0 0 0 1 3
13 1 4.45714 0.891429 0.891429 0 0 0 1 2
14 1 4.4436 2.6445 2.70715 -2.28602 8.3039 -0.339141 1 1
15 1 6.23255 0.834623 2.66136 -3.32652 1.51014 -10.8174 1 1
16 1 6.24 2.67429 0.891429 0 0 0 1 2
17 1 7.10796 1.76291 1.78658 -12.3574 6.74773 -8.20997 1 1
18 1 7.13143 0 0 0 0 0 1 3
19 1 8.02286 0.891429 0.891429 0 0 0 1 2
20 1 8.00615 2.65286 2.67039 3.61849 4.6394 -5.54057 1 1
21 1 8.91429 1.78286 0 0 0 0 1 3
22 1 9.80308 0.891113 2.68176 11.2047 6.6188 -1.38063 1 1
23 1 9.80572 2.67429 0.891429 0 0 0 1 2
24 1 8.91547 0.0138714 1.81124 4.16879 4.58499 1.58731 1 1
25 1 10.6923 1.81149 1.75805 5.07876 -1.65964 -0.0319855 1 1
26 1 10.6971 0 0 0 0 0 1 3
27 1 12.48 1.78286 0 0 0 0 1 3
28 1 11.5886 0.891429 0.891429 0 0 0 1 2
29 1 11.5618 2.70704 2.66239 -3.96246 1.92037 -3.14827 1 1
30 1 13.3404 0.86784 2.65822 -2.18881 -7.99313 1.83053 1 1
31 1 13.3714 2.67429 0.891429 0 0 0 1 2
32 1 14.261 1.79247 1.82293 -4.98512 -1.01552 -2.70877 1 1
33 1 14.2629 0 0 0 0 0 1 3
34 1 16.0457 1.78286 0 0 0 0 1 3
35 1 15.1543 0.891429 0.891429 0 0 0 1 2
36 1 15.1608 2.64106 2.66101 3.91754 -4.27117 0.200402 1 1
37 1 16.9484 0.913945 2.67959 4.11453 8.73136 -0.488444 1 1
38 1 16.9371 2.67429 0.891429 0 0 0 1 2
39 1 16.041 21.3799 1.76654 1.337 -5.67407 -4.27985 1 1
40 1 17.8462 1.82301 1.78942 -4.90943 1.95076 -1.70961 1 1
41 1 17.8286 0 0 0 0 0 1 3
42 1 19.6114 1.78286 0 0 0 0 1 3
43 1 18.72 0.891429 0.891429 0 0 0 1 2
44 1 18.7578 2.69997 2.71828 -3.43692 0.468528 4.02739 1 1
45 1 20.5175 0.860834 2.69176 -0.626282 -5.52984 2.46398 1 1
46 1 20.5029 2.67429 0.891429 0 0 0 1 2
47 1 0 3.56572 0 0 0 0 1 3
48 1 1.78286 5.34857 0 0 0 0 1 3
49 1 0.891429 4.45714 0.891429 0 0 0 1 2
50 1 0.874683 6.19505 2.7021 -5.88916 -1.3617 -1.46912 1 1
51 1 2.6625 4.46792 2.68509 -4.77731 -5.01656 5.34422 1 1
52 1 2.67429 6.24 0.891429 0 0 0 1 2
53 1 3.52214 5.32741 1.79776 -0.494613 0.700429 -11.5589 1 1
54 1 5.33339 3.54337 1.79895 -0.44397 0.502816 1.28921 1 1
55 1 3.56572 3.56572 0 0 0 0 1 3
56 1 5.34857 5.34857 0 0 0 0 1 3
57 1 4.45714 4.45714 0.891429 0 0 0 1 2
58 1 4.39333 6.22639 2.66681 -0.34272 -5.79574 6.4312 1 1
59 1 6.25345 4.42356 2.63767 1.07939 5.49987 9.70829 1 1
60 1 6.24 6.24 0.891429 0 0 0 1 2
61 1 5.32417 7.12626 1.76199 8.47158 -0.404398 -2.20382 1 1
62 1 7.14464 5.29727 1.73839 2.87271 6.28038 -2.53546 1 1
63 1 7.13143 3.56572 0 0 0 0 1 3
64 1 8.92282 3.57362 1.82689 0.550173 -2.11967 5.1774 1 1
65 1 8.02286 4.45714 0.891429 0 0 0 1 2
66 1 8.00071 6.20587 2.66999 -4.73953 2.38074 0.545808 1 1
67 1 8.91429 5.34857 0 0 0 0 1 3
68 1 9.78776 4.45436 2.6794 0.879305 11.5173 -2.45626 1 1
69 1 9.80572 6.24 0.891429 0 0 0 1 2
70 1 10.6756 5.36472 1.76617 2.64352 -1.97216 1.72365 1 1
71 1 12.4945 3.58441 1.81102 0.371088 2.61917 -7.56593 1 1
72 1 10.6971 3.56572 0 0 0 0 1 3
73 1 12.48 5.34857 0 0 0 0 1 3
74 1 11.5886 4.45714 0.891429 0 0 0 1 2
75 1 11.566 6.23814 2.65811 -4.44913 -8.50612 -4.99525 1 1
76 1 13.3848 4.46058 2.68699 -2.11403 9.52807 4.22 1 1
77 1 13.3714 6.24 0.891429 0 0 0 1 2
78 1 14.2662 5.33047 1.80657 3.12125 1.55936 4.60521 1 1
79 1 16.0596 3.57051 1.7705 -3.9309 -1.23737 3.62208 1 1
80 1 14.2629 3.56572 0 0 0 0 1 3
81 1 16.0457 5.34857 0 0 0 0 1 3
82 1 15.1543 4.45714 0.891429 0 0 0 1 2
83 1 15.1656 6.22728 2.69789 1.05421 -4.67439 -2.48734 1 1
84 1 16.9846 4.45107 2.6585 5.24799 -3.9774 -1.5526 1 1
85 1 16.9371 6.24 0.891429 0 0 0 1 2
86 1 17.8467 5.37016 1.754 5.34388 -0.0651865 -0.0790664 1 1
87 1 19.6724 3.57484 1.79902 -1.94551 4.57367 -1.04409 1 1
88 1 0.0449334 5.32872 1.82422 -3.24825 6.03778 -2.35629 1 1
89 1 17.8286 3.56572 0 0 0 0 1 3
90 1 19.6114 5.34857 0 0 0 0 1 3
91 1 18.72 4.45714 0.891429 0 0 0 1 2
92 1 18.7491 6.22831 2.66587 -0.640499 -7.02265 0.8848 1 1
93 1 20.5264 4.46201 2.7088 6.13271 -4.35768 -2.79094 1 1
94 1 20.5029 6.24 0.891429 0 0 0 1 2
95 1 19.6339 7.13817 1.80564 3.01734 -9.98984 4.4292 1 1
96 1 1.77548 7.08436 1.82662 -7.25321 3.84995 -1.95145 1 1
97 1 0 7.13143 0 0 0 0 1 3
98 1 0.891429 8.02286 0.891429 0 0 0 1 2
99 1 2.67941 7.97873 2.67942 1.09401 -2.55434 2.29156 1 1
100 1 1.78286 8.91429 0 0 0 0 1 3
101 1 0.882665 9.81709 2.72641 -2.19759 -0.846375 0.265416 1 1
102 1 2.67429 9.80572 0.891429 0 0 0 1 2
103 1 1.78736 10.6832 1.80954 -1.40074 2.28067 0.723002 1 1
104 1 3.5625 8.87737 1.79496 1.27987 -2.32064 -3.39099 1 1
105 1 3.56572 7.13143 0 0 0 0 1 3
106 1 4.45714 8.02286 0.891429 0 0 0 1 2
107 1 6.196 8.01901 2.70102 -0.158949 -3.07816 11.6118 1 1
108 1 5.34857 8.91429 0 0 0 0 1 3
109 1 4.47583 9.83363 2.70165 -1.41879 -10.5524 -4.56469 1 1
110 1 6.24 9.80572 0.891429 0 0 0 1 2
111 1 7.10793 8.89001 1.76996 9.8397 -6.42087 -2.34105 1 1
112 1 8.89638 7.11523 1.80437 0.258618 0.471717 -1.53849 1 1
113 1 7.13143 7.13143 0 0 0 0 1 3
114 1 8.02286 8.02286 0.891429 0 0 0 1 2
115 1 9.82593 7.93995 2.70263 6.93505 2.56136 -3.61795 1 1
116 1 8.03732 9.7717 2.68338 -5.65724 -0.127458 1.50446 1 1
117 1 8.91429 8.91429 0 0 0 0 1 3
118 1 9.80572 9.80572 0.891429 0 0 0 1 2
119 1 10.7026 8.87151 1.78555 0.745379 1.36538 6.03454 1 1
120 1 12.4828 7.13422 1.74343 -5.89697 3.71874 0.702495 1 1
121 1 10.6971 7.13143 0 0 0 0 1 3
122 1 11.5886 8.02286 0.891429 0 0 0 1 2
123 1 13.3723 7.98787 2.69429 4.32119 11.6348 0.333731 1 1
124 1 12.48 8.91429 0 0 0 0 1 3
125 1 11.5889 9.76243 2.70513 -4.2322 -1.12589 -0.156399 1 1
126 1 13.3714 9.80572 0.891429 0 0 0 1 2
127 1 12.4765 10.6673 1.77511 0.67166 -7.06869 3.97674 1 1
128 1 16.0626 7.1078 1.81081 -5.73178 0.117413 -6.84772 1 1
129 1 14.2505 8.90468 1.83433 -5.15261 -2.75417 3.93003 1 1
130 1 14.2629 7.13143 0 0 0 0 1 3
131 1 15.1543 8.02286 0.891429 0 0 0 1 2
132 1 16.8878 8.02883 2.66984 2.97561 11.5137 -5.25742 1 1
133 1 16.0457 8.91429 0 0 0 0 1 3
134 1 15.1212 9.75591 2.7044 -4.40003 4.59326 3.39721 1 1
135 1 16.9371 9.80572 0.891429 0 0 0 1 2
136 1 16.0336 10.6963 1.81128 4.74788 -2.79502 4.91639 1 1
137 1 17.8174 8.90083 1.78499 -8.8677 3.62878 8.00771 1 1
138 1 21.3674 8.91857 1.81427 -0.554946 -4.84458 5.79131 1 1
139 1 17.8286 7.13143 0 0 0 0 1 3
140 1 18.72 8.02286 0.891429 0 0 0 1 2
141 1 20.479 8.0301 2.72154 1.85803 3.39117 0.547777 1 1
142 1 19.6114 8.91429 0 0 0 0 1 3
143 1 18.7169 9.79401 2.68459 -12.1069 -1.84822 2.60761 1 1
144 1 20.5029 9.80572 0.891429 0 0 0 1 2
145 1 0 10.6971 0 0 0 0 1 3
146 1 1.78286 12.48 0 0 0 0 1 3
147 1 0.891429 11.5886 0.891429 0 0 0 1 2
148 1 2.65996 11.6165 2.69182 3.05266 2.35201 -1.9553 1 1
149 1 0.91061 13.4002 2.71282 2.28298 7.19525 2.09714 1 1
150 1 2.67429 13.3714 0.891429 0 0 0 1 2
151 1 0.054066 12.49 1.79053 0.71427 6.81921 -7.63405 1 1
152 1 5.37934 10.6947 1.80717 3.91656 5.08564 -2.34771 1 1
153 1 3.54879 12.4737 1.80143 3.75132 5.56701 -0.763087 1 1
154 1 3.56572 10.6971 0 0 0 0 1 3
155 1 5.34857 12.48 0 0 0 0 1 3
156 1 4.45714 11.5886 0.891429 0 0 0 1 2
157 1 6.23261 11.5899 2.69229 -5.09974 -7.98986 7.59619 1 1
158 1 4.41527 13.3742 2.65936 6.08563 -4.03626 1.13542 1 1
159 1 6.24 13.3714 0.891429 0 0 0 1 2
160 1 5.31179 14.2188 1.80589 -4.37556 8.23991 0.215582 1 1
161 1 8.8715 10.7221 1.81481 4.10425 -4.4168 1.51691 1 1
162 1 7.12397 12.4785 1.80895 -0.0545867 -2.17403 0.788539 1 1
163 1 7.13143 10.6971 0 0 0 0 1 3
164 1 8.02286 11.5886 0.891429 0 0 0 1 2
165 1 8.91429 12.48 0 0 0 0 1 3
166 1 9.77071 11.6198 2.70835 2.08945 -9.87235 -2.47244 1 1
167 1 8.03325 13.3829 2.67142 -3.66855 -2.52155 -1.5414 1 1
168 1 9.80572 13.3714 0.891429 0 0 0 1 2
169 1 10.6923 12.4882 1.81457 -1.30032 -4.55522 1.20342 1 1
170 1 10.6971 10.6971 0 0 0 0 1 3
171 1 12.48 12.48 0 0 0 0 1 3
172 1 11.5886 11.5886 0.891429 0 0 0 1 2
173 1 13.355 11.5562 2.6827 -2.33193 3.75763 -1.41523 1 1
174 1 11.5508 13.4271 2.63485 6.2674 -4.50248 -1.70545 1 1
175 1 13.3714 13.3714 0.891429 0 0 0 1 2
176 1 12.4813 14.2755 1.78983 0.922231 2.06896 8.14301 1 1
177 1 14.2285 12.4621 1.7998 -0.595577 -5.30351 2.38711 1 1
178 1 14.2629 10.6971 0 0 0 0 1 3
179 1 16.0457 12.48 0 0 0 0 1 3
180 1 15.1543 11.5886 0.891429 0 0 0 1 2
181 1 16.9487 11.5807 2.7159 -7.51124 0.273085 9.71001 1 1
182 1 15.1521 13.3287 2.7228 -5.95807 -3.60516 4.19642 1 1
183 1 16.9371 13.3714 0.891429 0 0 0 1 2
184 1 17.7989 12.4961 1.79013 -8.53588 0.148454 3.43862 1 1
185 1 19.6019 10.7007 1.763 -5.43793 -2.90986 -2.33991 1 1
186 1 17.8286 10.6971 0 0 0 0 1 3
187 1 19.6114 12.48 0 0 0 0 1 3
188 1 18.72 11.5886 0.891429 0 0 0 1 2
189 1 20.4869 11.6174 2.70742 -0.247502 -0.990412 3.04922 1 1
190 1 18.7106 13.4053 2.6619 3.39058 17.1288 5.45471 1 1
191 1 20.5029 13.3714 0.891429 0 0 0 1 2
192 1 19.6441 14.2758 1.75954 -1.47299 -0.711093 -2.3869 1 1
193 1 1.76468 14.2726 1.79622 4.49733 -3.28976 -3.25827 1 1
194 1 0 14.2629 0 0 0 0 1 3
195 1 1.78286 16.0457 0 0 0 0 1 3
196 1 0.891429 15.1543 0.891429 0 0 0 1 2
197 1 0.910173 16.8927 2.66873 6.57169 2.17797 -6.72908 1 1
198 1 2.67017 15.1453 2.6414 -0.650249 -1.77554 1.45509 1 1
199 1 2.67429 16.9371 0.891429 0 0 0 1 2
200 1 21.389 16.0022 1.76288 -7.29081 1.80178 -3.70825 1 1
201 1 3.5652 16.0518 1.71435 -5.87093 -0.379399 2.17592 1 1
202 1 3.56572 14.2629 0 0 0 0 1 3
203 1 5.34857 16.0457 0 0 0 0 1 3
204 1 4.45714 15.1543 0.891429 0 0 0 1 2
205 1 4.43519 16.9108 2.65025 -6.71101 -1.9054 3.80434 1 1
206 1 6.24058 15.1544 2.68213 -4.497 -4.017 -6.23025 1 1
207 1 6.24 16.9371 0.891429 0 0 0 1 2
208 1 7.1771 16.0382 1.75097 -0.604593 -7.22233 -5.27272 1 1
209 1 5.36515 17.8045 1.77419 1.39593 -4.01064 2.54004 1 1
210 1 8.91435 14.2687 1.77648 -3.60581 6.82608 4.61785 1 1
211 1 7.13143 14.2629 0 0 0 0 1 3
212 1 8.02286 15.1543 0.891429 0 0 0 1 2
213 1 8.01487 16.9259 2.67687 7.71635 -3.18957 0.24748 1 1
214 1 8.91429 16.0457 0 0 0 0 1 3
215 1 9.80653 15.2017 2.6966 -3.53578 4.25155 1.54747 1 1
216 1 9.80572 16.9371 0.891429 0 0 0 1 2
217 1 8.9434 17.8585 1.76134 -1.65057 2.96897 3.6655 1 1
218 1 10.7035 16.079 1.7985 4.12362 -13.2975 -4.20025 1 1
219 1 10.6971 14.2629 0 0 0 0 1 3
220 1 12.48 16.0457 0 0 0 0 1 3
221 1 11.5886 15.1543 0.891429 0 0 0 1 2
222 1 11.6221 16.9812 2.69355 -5.14273 -0.867704 -9.90162 1 1
223 1 13.3422 15.188 2.68637 -4.25472 -2.5661 -0.273698 1 1
224 1 13.3714 16.9371 0.891429 0 0 0 1 2
225 1 12.4985 17.8673 1.80638 -4.74852 -1.50854 -0.593351 1 1
226 1 16.0253 14.2703 1.83921 1.01667 7.59774 2.0675 1 1
227 1 14.2538 16.0544 1.81236 -0.435318 -2.79492 -3.79726 1 1
228 1 14.2629 14.2629 0 0 0 0 1 3
229 1 16.0457 16.0457 0 0 0 0 1 3
230 1 15.1543 15.1543 0.891429 0 0 0 1 2
231 1 15.139 16.9454 2.67261 1.94875 -2.89615 -4.80519 1 1
232 1 16.891 15.1911 2.69937 1.06202 -3.22435 -3.53728 1 1
233 1 16.9371 16.9371 0.891429 0 0 0 1 2
234 1 17.8049 16.0362 1.78246 -2.03341 5.10354 3.28844 1 1
235 1 17.8286 14.2629 0 0 0 0 1 3
236 1 19.6114 16.0457 0 0 0 0 1 3
237 1 18.72 15.1543 0.891429 0 0 0 1 2
238 1 18.6745 16.9488 2.68675 -0.291054 2.16229 -2.1195 1 1
239 1 20.5199 15.201 2.70384 -5.51561 4.38704 -1.02186 1 1
240 1 20.5029 16.9371 0.891429 0 0 0 1 2
241 1 19.5917 17.8317 1.77545 5.56972 -4.78581 2.55401 1 1
242 1 1.8203 17.8195 1.7544 -0.842002 -8.50767 -2.41395 1 1
243 1 0 17.8286 0 0 0 0 1 3
244 1 1.78286 19.6114 0 0 0 0 1 3
245 1 0.891429 18.72 0.891429 0 0 0 1 2
246 1 0.926191 20.5063 2.689 -0.212965 -0.316441 -3.81243 1 1
247 1 2.68553 18.7135 2.6715 5.69362 -2.04042 -8.96575 1 1
248 1 2.67429 20.5029 0.891429 0 0 0 1 2
249 1 3.5814 19.6005 1.78121 -7.19579 2.88778 -0.964698 1 1
250 1 21.3926 19.5997 1.78505 -6.26846 11.6028 -6.20628 1 1
251 1 5.3673 21.3639 1.78569 -5.14098 11.6267 -4.37124 1 1
252 1 3.56572 17.8286 0 0 0 0 1 3
253 1 5.34857 19.6114 0 0 0 0 1 3
254 1 4.45714 18.72 0.891429 0 0 0 1 2
255 1 4.46557 20.4728 2.65963 7.20693 4.22748 -1.55072 1 1
256 1 6.28214 18.7197 2.63313 -2.73183 2.22321 4.72884 1 1
257 1 6.24 20.5029 0.891429 0 0 0 1 2
258 1 7.18339 19.6063 1.7558 -1.67044 0.113334 -1.74608 1 1
259 1 7.13143 17.8286 0 0 0 0 1 3
260 1 8.02286 18.72 0.891429 0 0 0 1 2
261 1 8.0277 20.5349 2.67062 2.4737 0.681058 -0.253401 1 1
262 1 8.91429 19.6114 0 0 0 0 1 3
263 1 9.82289 18.7107 2.67625 -5.83426 -0.356984 -2.27667 1 1
264 1 9.80572 20.5029 0.891429 0 0 0 1 2
265 1 10.6859 19.6035 1.75592 -2.77499 0.174403 4.21676 1 1
266 1 12.4485 0.0464992 1.76976 -2.17531 -8.0896 0.00172402 1 1
267 1 10.6971 17.8286 0 0 0 0 1 3
268 1 12.48 19.6114 0 0 0 0 1 3
269 1 11.5886 18.72 0.891429 0 0 0 1 2
270 1 11.5611 20.5502 2.71825 8.53485 -2.00991 -8.14616 1 1
271 1 13.3129 18.7643 2.69231 2.09737 -2.38837 -6.89356 1 1
272 1 13.3714 20.5029 0.891429 0 0 0 1 2
273 1 14.1738 19.6378 1.81236 -6.98082 0.502292 -9.18606 1 1
274 1 15.9973 17.8319 1.76464 5.00185 2.7163 -2.21606 1 1
275 1 14.2629 17.8286 0 0 0 0 1 3
276 1 16.0457 19.6114 0 0 0 0 1 3
277 1 15.1543 18.72 0.891429 0 0 0 1 2
278 1 15.142 20.4784 2.68193 -4.00063 1.74907 0.458885 1 1
279 1 16.9068 18.7538 2.69747 7.96486 1.32655 3.55689 1 1
280 1 16.9371 20.5029 0.891429 0 0 0 1 2
281 1 19.6125 0.0270686 1.78125 3.14216 5.04729 1.92533 1 1
282 1 17.8037 19.6075 1.78806 -1.46031 -5.64526 4.20774 1 1
283 1 17.8286 17.8286 0 0 0 0 1 3
284 1 19.6114 19.6114 0 0 0 0 1 3
285 1 18.72 18.72 0.891429 0 0 0 1 2
286 1 18.7107 20.5145 2.68397 -4.79317 -1.63687 2.32652 1 1
287 1 20.4754 18.687 2.62269 8.71596 6.06686 2.68765 1 1
288 1 20.5029 20.5029 0.891429 0 0 0 1 2
289 1 1.79852 1.79035 3.58172 3.09399 -3.27717 2.06341 1 1
290 1 0.934632 0.887571 4.46442 0.704787 -6.71417 -3.54839 1 1
291 1 2.65839 2.67195 4.45072 1.57208 -0.122842 1.16908 1 1
292 1 1.75712 21.3493 5.33544 -0.310816 4.1573 -6.12121 1 1
293 1 1.80555 3.56529 5.41251 -2.34595 -2.16355 2.76764 1 1
294 1 21.375 1.80155 5.36617 4.15426 -3.94476 5.92897 1 1
295 1 0.0117559 0.00492867 3.58918 -4.3937 -4.85695 4.12937 1 1
296 1 3.5488 1.73091 5.34152 -5.46573 1.85168 -0.994145 1 1
297 1 5.34898 1.74092 3.60247 -2.41801 4.54581 -0.914286 1 1
298 1 4.46614 0.864115 4.49993 -1.00721 -3.21644 -11.4606 1 1
299 1 6.26591 0.902257 6.24403 -0.640387 -3.02139 5.8471 1 1
300 1 6.19239 2.66824 4.46253 2.58674 -3.83769 -0.881347 1 1
301 1 3.57368 21.3764 3.57955 2.61609 -2.45845 6.01247 1 1
302 1 7.16008 0.00827884 3.56327 3.50079 -3.61074 -1.05831 1 1
303 1 5.38489 0.0282135 5.35481 4.00626 -3.38508 -4.43514 1 1
304 1 7.14313 3.53796 3.55027 -0.0521847 1.36612 -0.099394 1 1
305 1 7.17494 1.84384 5.38222 0.414435 2.17707 -3.35902 1 1
306 1 8.89533 1.76299 3.55148 5.78875 -1.39784 -3.15533 1 1
307 1 8.00659 0.91003 4.46726 4.58422 10.4514 -2.94182 1 1
308 1 7.9715 2.72563 6.2724 -5.45584 2.4776 0.574552 1 1
309 1 9.81495 0.859605 6.23468 0.905941 0.749584 -5.30722 1 1
310 1 9.77983 2.68112 4.47785 -0.308984 -2.61832 -0.639721 1 1
311 1 10.6484 1.77803 5.37179 -1.07548 -5.4201 -11.0454 1 1
312 1 12.4526 1.81579 3.59113 -7.42013 -1.70891 -5.56795 1 1
313 1 11.5193 0.903433 4.47242 2.79172 0.380274 -2.21697 1 1
314 1 11.5999 2.63847 6.27035 -1.2891 -6.2763 -0.576316 1 1
315 1 13.3513 2.665 4.4723 3.50246 -6.4824 -1.44318 1 1
316 1 13.3746 0.876677 6.28296 0.392262 -3.43126 -5.24802 1 1
317 1 12.4556 3.531 5.38359 5.49567 2.7134 -2.21497 1 1
318 1 14.2591 1.75316 5.34525 -7.31923 -0.283078 0.711252 1 1
319 1 12.5139 0.0103477 5.3833 2.81174 0.753036 7.3727 1 1
320 1 14.2648 3.52572 3.57071 -1.65823 5.06686 -10.7104 1 1
321 1 16.0263 1.70812 3.57582 3.19282 4.26261 -1.76727 1 1
322 1 15.1073 0.88042 4.44653 6.60427 -3.44738 -1.50926 1 1
323 1 15.1788 2.69319 6.2648 -0.718219 0.809723 -0.81186 1 1
324 1 16.8946 2.65734 4.43805 -5.10003 1.32646 -3.23849 1 1
325 1 17.8206 1.75467 5.35049 -7.47316 12.7674 0.249835 1 1
326 1 16.0477 21.3881 5.32534 6.3785 -5.92005 3.94463 1 1
327 1 19.6277 1.77959 3.573 8.27006 -0.094629 4.64912 1 1
328 1 18.7383 0.884072 4.46361 5.19073 7.84998 0.661324 1 1
329 1 20.5447 2.67841 4.45137 4.58513 0.0273504 -0.608743 1 1
330 1 17.8246 0.00233187 3.58777 9.30738 -1.09777 1.18122 1 1
331 1 19.6111 0.0249907 5.31797 -14.1981 -3.00897 4.41212 1 1
332 1 0.0194839 3.51818 3.59176 -0.39761 -1.9206 -0.739944 1 1
333 1 1.82946 5.37129 3.62657 -0.786319 -1.68918 -1.48952 1 1
334 1 0.956336 4.47627 4.53234 -5.17916 -1.67683 1.58164 1 1
335 1 2.65685 4.44708 6.25708 2.75359 0.64873 -8.0183 1 1
336 1 2.70433 6.24715 4.46806 -2.49968 -3.74908 -2.07335 1 1
337 1 3.56102 3.57231 3.53742 0.390415 2.97004 -3.07924 1 1
338 1 21.3602 5.37935 5.33381 5.92453 -7.17997 -4.46351 1 1
339 1 3.57027 5.38315 5.39419 -8.67304 -5.23791 7.62373 1 1
340 1 5.29649 3.58638 5.37776 1.01551 -3.53756 -0.440552 1 1
341 1 5.33268 5.32291 3.57993 -5.25758 -4.24445 -0.728159 1 1
342 1 4.46118 4.47419 4.46685 5.58888 -5.2209 -0.475171 1 1
343 1 4.41793 6.25533 6.26269 6.77461 -1.98381 1.37683 1 1
344 1 6.22832 6.22669 4.49009 0.232839 0.0649538 0.720478 1 1
345 1 7.13369 5.35221 5.36047 -1.23821 -0.0880904 -0.445191 1 1
346 1 5.35542 7.10188 5.39376 -2.06102 -1.94341 -0.482852 1 1
347 1 6.20197 4.51874 6.31043 1.79013 3.38702 -1.24376 1 1
348 1 8.89221 3.53796 5.36012 4.6515 4.26163 -5.35751 1 1
349 1 10.7008 3.57424 3.55948 1.70231 4.33399 -1.7995 1 1
350 1 8.87171 5.32742 3.60841 -12.5238 4.24714 1.24381 1 1
351 1 7.98266 4.42131 4.45021 -4.39515 -2.10029 -2.82532 1 1
352 1 8.0189 6.27908 6.26589 -2.29708 10.9605 0.87408 1 1
353 1 9.77756 4.46288 6.25253 0.63227 3.57675 -11.7078 1 1
354 1 9.7659 6.19879 4.47233 -4.5852 -2.1107 -3.25727 1 1
355 1 10.6783 5.29446 5.34188 5.90127 -0.787281 -3.66773 1 1
356 1 12.4934 5.34058 3.57156 5.14334 -3.99614 5.85284 1 1
357 1 11.5398 4.4417 4.47879 0.965083 -8.32671 0.314259 1 1
358 1 13.3859 6.21315 4.50294 -10.2263 -0.252044 2.51321 1 1
359 1 14.2939 5.30281 5.37562 4.02008 -1.33766 10.6513 1 1
360 1 16.0521 3.5537 5.33164 -7.96195 -7.07425 4.00037 1 1
361 1 17.8532 3.5895 3.53008 7.39193 5.95092 3.26794 1 1
362 1 16.0682 5.32443 3.56154 9.02415 -6.228 -0.780291 1 1
363 1 15.1271 4.45279 4.43371 1.14795 -2.4708 -6.9324 1 1
364 1 16.9355 6.27517 4.48085 8.31819 3.80664 11.0877 1 1
365 1 16.9382 4.42873 6.25009 -1.19788 -14.9631 8.40343 1 1
366 1 16.0494 7.13761 5.41351 7.00719 -9.36182 0.460748 1 1
367 1 15.1344 6.18649 6.29524 9.62784 -8.91132 4.8035 1 1
368 1 19.5976 3.57889 5.29994 -3.76487 -1.95657 -0.357125 1 1
369 1 17.839 5.35408 5.38489 0.517373 -5.18338 9.08106 1 1
370 1 19.6287 5.389 3.6084 -3.991 -3.74518 2.03494 1 1
371 1 18.6991 4.4606 4.47987 -5.35876 -1.84645 6.21203 1 1
372 1 20.5211 4.48325 6.23709 0.284993 -7.1311 -4.833 1 1
373 1 20.4389 6.27895 4.4937 7.24037 -3.64984 1.83266 1 1
374 1 19.531 7.15031 5.36375 1.54537 -4.52072 0.989775 1 1
375 1 21.3666 7.11268 3.59426 6.86352 -10.5977 -0.913183 1 1
376 1 1.80242 7.10233 5.38107 -1.68244 -2.97997 -0.289597 1 1
377 1 1.79036 8.92822 3.57742 -8.70121 -4.89321 -2.46939 1 1
378 1 0.929104 7.99289 4.48605 -3.17977 -2.87333 0.864312 1 1
379 1 2.64753 8.03471 6.2742 1.77719 -3.2197 -6.00416 1 1
380 1 0.885385 9.80394 6.24157 -6.15904 0.690887 -2.32515 1 1
381 1 2.72526 9.83573 4.46198 -3.71604 9.98165 10.6776 1 1
382 1 21.3714 8.87587 5.37225 -3.53087 -3.90272 3.18643 1 1
383 1 1.79708 10.6974 5.36758 -6.19804 -4.25128 4.99794 1 1
384 1 3.56132 7.12101 3.59607 7.18274 -2.56065 3.31139 1 1
385 1 7.15515 7.13798 3.54889 6.31587 9.63159 8.39073 1 1
386 1 3.59823 10.7154 3.5586 3.92357 6.05955 -4.04464 1 1
387 1 3.55539 8.92508 5.39895 5.92114 3.99698 8.06745 1 1
388 1 5.36821 8.89447 3.57332 -2.50806 3.60279 1.57502 1 1
389 1 4.44578 8.02095 4.43629 0.0598868 -2.69941 -8.94807 1 1
390 1 4.46651 9.82295 6.24019 2.90099 4.38654 6.41379 1 1
391 1 6.26329 9.80023 4.43073 -2.57466 -2.34975 6.85015 1 1
392 1 8.91447 7.13347 5.36953 -2.49145 2.84115 -5.55619 1 1
393 1 7.07712 8.90511 5.34508 6.48899 7.32876 -3.49337 1 1
394 1 8.91056 8.89909 3.5577 -9.36084 1.38073 5.85141 1 1
395 1 8.03455 8.01222 4.47416 -4.37793 8.19083 -4.75352 1 1
396 1 9.83461 9.78052 4.49016 -3.38233 5.35787 5.08926 1 1
397 1 10.7499 8.92767 5.33964 -11.0645 -0.822232 8.35174 1 1
398 1 10.642 10.6576 3.59381 1.04544 -4.33 2.70808 1 1
399 1 9.80563 7.98648 6.23837 -5.83927 -3.87278 -0.355944 1 1
400 1 12.5304 7.12507 5.39338 -5.82308 -4.19296 1.24324 1 1
401 1 10.7199 7.11661 3.57673 -2.68422 7.03382 7.0604 1 1
402 1 12.4919 8.84925 3.56411 2.45887 1.81906 -5.36382 1 1
403 1 11.6073 8.00591 4.43226 -6.42884 5.0758 5.29601 1 1
404 1 13.3604 9.81721 4.45051 0.147999 1.11045 -1.09278 1 1
405 1 14.2924 7.09638 3.62803 -11.6583 -2.89786 -1.60221 1 1
406 1 14.2736 8.9449 5.38922 -2.4376 2.07787 2.23061 1 1
407 1 17.8069 7.1143 3.58853 -2.66717 1.09808 4.73837 1 1
408 1 16.0064 8.89593 3.54296 2.25181 11.7854 -0.45012 1 1
409 1 15.1601 8.01312 4.48944 -8.56492 -4.51893 -1.83398 1 1
410 1 16.928 9.76442 4.42201 -2.99355 -1.62831 2.08608 1 1
411 1 16.021 10.6797 5.37594 -3.26786 3.70399 3.69823 1 1
412 1 16.9248 8.05933 6.23685 0.323096 2.1827 6.20328 1 1
413 1 17.7992 8.88707 5.34773 -0.803781 -4.20601 3.69374 1 1
414 1 19.5662 8.89094 3.62937 -0.377741 -6.10963 9.2974 1 1
415 1 18.6473 8.00407 4.46978 2.34198 -2.49143 2.4121 1 1
416 1 18.6896 9.80483 6.24717 -3.72724 -5.4704 2.29838 1 1
417 1 20.4651 9.82697 4.47799 2.79533 2.86242 6.16627 1 1
418 1 20.4604 8.04081 6.23948 -0.423406 -11.1311 4.42542 1 1
419 1 19.5669 10.6995 5.38899 -8.86267 -1.93575 4.807 1 1
420 1 21.3878 10.7174 3.61706 -3.36894 5.24018 -0.0745422 1 1
421 1 1.7727 12.4974 3.62494 3.10568 -0.609939 -4.76464 1 1
422 1 0.887669 11.6344 4.47964 4.04899 -5.39467 0.168376 1 1
423 1 2.73046 11.5797 6.26232 -0.0666949 -6.60586 7.90646 1 1
424 1 0.931827 13.3657 6.25424 -1.57085 2.36219 7.32591 1 1
425 1 2.65602 13.3919 4.48567 0.471541 6.32294 -3.74661 1 1
426 1 21.3684 12.5074 5.38235 7.09094 -4.62072 0.868599 1 1
427 1 5.38276 10.6616 5.34141 1.23999 0.805705 4.34217 1 1
428 1 3.54959 14.2777 3.562 0.71073 -7.73703 6.68015 1 1
429 1 3.56123 12.4638 5.38271 1.993 4.05975 -5.21708 1 1
430 1 5.35123 12.4915 3.58929 -2.08127 0.261081 1.60683 1 1
431 1 4.46961 11.5711 4.48835 -9.80738 -6.41716 5.04153 1 1
432 1 6.25693 13.3857 4.46434 4.80303 -0.670771 -5.71352 1 1
433 1 7.1146 14.2394 3.55576 6.62715 1.365 3.05795 1 1
434 1 6.27409 11.578 6.25202 -1.03688 -4.00849 2.15799 1 1
435 1 7.17047 10.6834 3.60588 3.24144 -1.00026 0.184671 1 1
436 1 7.13042 12.5159 5.37888 8.01576 -1.54749 1.31705 1 1
437 1 8.89821 10.6816 5.36933 6.08326 -0.740136 4.97519 1 1
438 1 8.90602 12.4357 3.58439 -2.79476 2.39918 1.27533 1 1
439 1 8.04921 11.5931 4.49268 1.60817 3.6266 7.60991 1 1
440 1 9.76932 11.5646 6.25352 6.00714 5.53676 7.72944 1 1
441 1 8.05095 13.3454 6.23906 2.34925 1.93673 -9.75234 1 1
442 1 9.83212 13.3951 4.45709 -2.45405 -3.86577 2.78385 1 1
443 1 10.6571 14.2752 3.55453 1.75745 1.2747 -5.54984 1 1
444 1 12.479 10.7103 5.338 -3.54005 4.77895 1.28368 1 1
445 1 10.668 12.4782 5.36568 -0.0728351 2.06571 1.69255 1 1
446 1 12.3705 12.5222 3.52017 -6.62739 2.70702 2.05241 1 1
447 1 11.5624 11.582 4.47593 -1.28482 -1.53222 5.13911 1 1
448 1 13.3547 11.5737 6.23417 -6.24035 -0.488269 1.51465 1 1
449 1 11.5613 13.388 6.25707 8.87816 2.93309 7.32349 1 1
450 1 13.3723 13.3701 4.42812 3.63732 -2.9461 -1.53037 1 1
451 1 14.2628 10.66 3.57597 3.37453 10.0365 8.72204 1 1
452 1 14.2706 12.4756 5.34169 -12.5496 -4.94572 3.68267 1 1
453 1 16.0536 12.4676 3.60725 1.96578 -4.82348 3.75799 1 1
454 1 15.1593 11.5675 4.48834 -0.429697 5.48428 -0.0638389 1 1
455 1 16.8999 11.6036 6.26348 -2.97641 -0.445233 4.86225 1 1
456 1 16.9298 13.4222 4.46635 3.37078 11.0618 -0.690428 1 1
457 1 17.8345 12.5136 5.35701 2.23267 6.29103 2.5787 1 1
458 1 15.1309 13.4285 6.27707 -12.0299 5.43392 -1.67643 1 1
459 1 17.8432 10.6941 3.57395 -6.08904 3.81697 -1.32812 1 1
460 1 19.5676 12.5002 3.62443 -3.20158 8.87817 -1.06767 1 1
461 1 18.7072 11.5743 4.49384 0.872686 4.53859 -4.48541 1 1
462 1 18.7195 13.3798 6.26043 -2.74099 4.46015 0.6477 1 1
463 1 20.5153 13.3673 4.48767 -1.52681 -0.205565 -1.19416 1 1
464 1 20.5133 11.5832 6.22449 -2.16573 3.59672 -3.19788 1 1
465 1 1.81 14.2636 5.3649 0.379213 -1.92978 -5.1328 1 1
466 1 1.82559 16.0603 3.54616 -2.82932 2.54252 0.30609 1 1
467 1 0.915337 15.1624 4.51801 5.78309 -0.317962 -1.32585 1 1
468 1 2.68879 15.1198 6.26969 1.39059 1.79319 -8.09249 1 1
469 1 2.73754 16.9548 4.43414 2.1226 7.17569 1.55927 1 1
470 1 0.00700219 16.0555 5.37709 7.36344 9.63434 0.696634 1 1
471 1 21.3791 14.291 3.60689 -5.51232 9.96509 7.61818 1 1
472 1 1.74535 17.8372 5.34378 1.58105 -0.837506 0.449959 1 1
473 1 5.36077 14.2616 5.36386 -7.607 -0.0702108 1.2512 1 1
474 1 3.56552 16.0449 5.35267 3.36678 1.39012 -1.66973 1 1
475 1 5.37006 16.0346 3.5359 -0.0267297 -6.95643 -3.68611 1 1
476 1 4.46768 15.1872 4.47809 -1.76361 1.73178 11.522 1 1
477 1 4.42787 16.9561 6.2525 0.484754 9.10464 -0.886352 1 1
478 1 6.24621 15.1331 6.25136 11.8826 -2.89419 -0.245539 1 1
479 1 6.24755 16.8945 4.44754 2.64912 -4.88527 0.900176 1 1
480 1 7.09964 16.0358 5.3783 -5.21013 5.79916 -0.086922 1 1
481 1 8.92569 14.2721 5.31403 -2.24535 -0.492835 2.99268 1 1
482 1 8.94723 16.0761 3.5634 0.737706 -1.25645 2.31439 1 1
483 1 8.00227 15.1349 4.47204 -1.82847 -4.07802 -0.0214236 1 1
484 1 8.03234 16.9327 6.30167 0.971145 5.18171 4.38434 1 1
485 1 9.81003 15.1427 6.28018 -2.64858 -4.49535 -8.69006 1 1
486 1 9.78616 16.963 4.49307 7.60167 9.69028 -0.389177 1 1
487 1 10.7344 16.0272 5.4081 -0.677762 -3.78713 -1.34787 1 1
488 1 8.91194 17.8658 5.39308 -2.08631 6.0111 -6.29411 1 1
489 1 10.6713 17.8571 3.5956 -0.846889 -0.854598 1.61952 1 1
490 1 12.4722 14.2401 5.38494 2.86342 -9.51431 1.5185 1 1
491 1 12.4607 16.0662 3.58408 6.92231 -4.75777 2.12196 1 1
492 1 11.5964 15.1359 4.4875 3.54389 2.20417 -10.3724 1 1
493 1 11.589 16.9813 6.26042 4.08611 -8.21048 -4.67371 1 1
494 1 13.3948 16.9945 4.47487 -5.9676 1.80538 1.52876 1 1
495 1 13.3442 15.1755 6.26345 -4.82008 2.04063 -2.57718 1 1
496 1 12.4678 17.8711 5.37059 7.29357 1.5553 5.33785 1 1
497 1 14.2427 14.3177 3.57251 5.64698 -4.00392 4.27118 1 1
498 1 16.0548 14.2993 5.40527 1.75546 -5.65246 1.90771 1 1
499 1 17.8094 14.3114 3.6071 -1.9089 1.58404 -1.98329 1 1
500 1 14.2211 16.0604 5.36175 -4.35093 2.30866 9.78927 1 1
501 1 14.2467 17.934 3.54442 -3.55207 0.619441 2.80654 1 1
502 1 16.0106 16.1 3.60642 4.06645 -0.359286 1.87813 1 1
503 1 15.1388 15.1783 4.4827 -7.56344 1.79502 -3.29874 1 1
504 1 16.9302 16.9482 4.48346 0.707667 1.32213 1.23848 1 1
505 1 16.9627 15.1258 6.24861 -0.511544 1.72049 -1.67464 1 1
506 1 17.7957 16.0109 5.32267 -1.10249 -5.71248 2.36887 1 1
507 1 19.5759 14.2805 5.38105 -2.39224 2.1133 6.57516 1 1
508 1 19.5827 16.0587 3.57255 3.78349 2.32209 5.77351 1 1
509 1 18.7348 15.1535 4.44703 -8.06005 5.21553 -9.77586 1 1
510 1 20.4847 16.9599 4.46625 0.720858 0.525462 3.66213 1 1
511 1 19.5994 17.8349 5.38446 -2.7694 -7.62347 10.6242 1 1
512 1 20.5327 15.16 6.22249 0.12003 -0.743925 -9.66939 1 1
513 1 1.82069 19.5863 3.5113 -5.06491 2.92452 3.18858 1 1
514 1 0.888053 18.7379 4.41351 -3.3851 2.89287 -6.62302 1 1
515 1 0.872346 20.4645 6.25387 -6.80626 -14.1498 3.5818 1 1
516 1 2.68453 20.4726 4.43741 -5.99219 -1.55484 -0.431763 1 1
517 1 -0.00069741 17.8414 3.55305 -6.05609 4.62808 10.3986 1 1
518 1 0.0600176 19.5866 5.30136 -2.3779 2.70253 -0.748331 1 1
519 1 2.6693 18.7349 6.27905 -0.170492 -2.0266 -4.70869 1 1
520 1 5.33152 17.836 5.39821 -1.35507 1.78791 -3.74523 1 1
521 1 3.59986 17.8263 3.57488 -1.68547 1.92193 0.908187 1 1
522 1 3.62242 19.6576 5.32254 3.42504 2.11324 -4.03352 1 1
523 1 5.38996 19.5901 3.56753 -5.10536 -1.91059 2.07566 1 1
524 1 4.50744 18.6915 4.46477 -7.32118 6.55601 -4.69589 1 1
525 1 4.48435 20.529 6.22896 -0.777417 3.52153 -8.88199 1 1
526 1 6.20114 18.6697 6.28842 -0.568945 -1.91433 -8.52216 1 1
527 1 6.31561 20.5242 4.45012 -1.43109 0.292551 -1.77287 1 1
528 1 7.12847 17.8127 3.53894 -1.05968 -5.57005 -0.337988 1 1
529 1 7.12276 19.6283 5.34975 0.641396 2.92467 4.99699 1 1
530 1 8.92535 21.3835 5.35878 4.92258 2.31699 -6.25058 1 1
531 1 8.88683 19.6291 3.56969 2.70436 -0.835883 -10.8906 1 1
532 1 8.00363 18.7462 4.48154 3.03568 2.95261 1.00143 1 1
533 1 8.01603 20.4667 6.23901 7.59016 -1.02755 4.64535 1 1
534 1 9.86685 18.7434 6.24817 -0.467034 -6.98868 -1.94077 1 1
535 1 9.80395 20.5158 4.4763 -1.79423 5.65469 1.82227 1 1
536 1 10.7166 19.6741 5.36902 8.9876 6.23386 1.00279 1 1
537 1 10.6724 0.0268035 3.58343 -3.05505 0.376748 1.00888 1 1
538 1 12.4189 19.6808 3.62436 1.4526 3.57564 4.48008 1 1
539 1 11.5865 18.7907 4.49295 5.63408 -7.11648 7.46174 1 1
540 1 13.3801 18.7054 6.30195 0.683103 2.10491 5.60703 1 1
541 1 13.3357 20.527 4.47362 0.981048 -2.81169 3.07583 1 1
542 1 16.0361 17.853 5.33779 -4.59598 -6.9037 5.70428 1 1
543 1 14.2543 0.0223066 3.57897 15.9346 -3.2869 0.390608 1 1
544 1 14.2559 19.6386 5.37914 3.66862 -4.68555 -2.30681 1 1
545 1 16.0356 19.5888 3.60241 -6.60046 -1.76036 1.04202 1 1
546 1 15.1423 18.7506 4.44467 0.646209 -5.45117 -0.422201 1 1
547 1 16.9152 18.6923 6.25827 -5.9156 -2.15877 -8.25196 1 1
548 1 16.9012 20.4966 4.45492 0.589442 0.464097 -1.75546 1 1
549 1 17.8235 19.6118 5.34901 -2.57953 5.21528 -4.0879 1 1
550 1 17.814 17.8598 3.59391 -1.64506 -0.919073 4.12505 1 1
551 1 19.589 19.6023 3.5592 4.41051 -0.5199 1.31886 1 1
552 1 18.7161 18.7114 4.48028 10.4981 -6.43891 -8.05888 1 1
553 1 18.6855 20.4851 6.2486 5.17516 -0.230717 -0.665305 1 1
554 1 20.5209 18.7639 6.23928 -0.71285 7.06095 -3.31121 1 1
555 1 20.5108 20.4926 4.4775 2.33875 -6.80398 -2.8945 1 1
556 1 2.6112 0.841047 6.28536 2.16878 -1.00816 -9.88768 1 1