ITEM: TIMESTEP
450
ITEM: NUMBER OF ATOMS
2953
ITEM: BOX BOUNDS pp pp mm
0.0000000000000000e+00 2.1394294200000001e+01
0.0000000000000000e+00 2.1394294200000001e+01
-4.4571446250000002e-01 5.3485735500000004e+01
ITEM: ATOMS id type x y z vx vy vz v_is_diamond c_structure_type
1 1 0 0 0 0 0 0 1 3
2 1 21.3649 1.82453 1.76025 -6.25963 2.19886 1.17587 1 1
3 1 1.77608 0.0144722 1.80516 -2.58454 -0.329961 -3.77355 1 1
4 1 1.78286 1.78286 0 0 0 0 1 3
5 1 0.891429 0.891429 0.891429 0 0 0 1 2
6 1 0.913288 2.6713 2.6977 -1.19993 -8.1448 10.9516 1 1
7 1 2.69926 0.910908 2.66407 5.35666 -10.2536 4.3598 1 1
8 1 2.67429 2.67429 0.891429 0 0 0 1 2
9 1 3.56572 0 0 0 0 0 1 3
10 1 3.56207 1.81273 1.79228 -2.34366 -4.30282 3.08833 1 1
11 1 5.34293 0.0482409 1.79598 7.78834 -1.55088 -11.534 1 1
12 1 5.34857 1.78286 0 0 0 0 1 3
13 1 4.45714 0.891429 0.891429 0 0 0 1 2
14 1 4.43125 2.68692 2.66778 -1.8235 10.1957 -11.1887 1 1
15 1 6.19415 0.927583 2.70251 2.61901 -3.2793 6.05145 1 1
16 1 6.24 2.67429 0.891429 0 0 0 1 2
17 1 7.13143 0 0 0 0 0 1 3
18 1 7.07933 1.80646 1.80601 5.70974 1.5258 4.82456 1 1
19 1 8.90123 21.3521 1.781 0.377259 -2.60605 8.97653 1 1
20 1 8.91429 1.78286 0 0 0 0 1 3
21 1 8.02286 0.891429 0.891429 0 0 0 1 2
22 1 8.00329 2.67541 2.6924 7.14963 2.91645 7.55156 1 1
23 1 9.80061 0.884411 2.65223 4.34043 1.82322 3.35532 1 1
24 1 9.80572 2.67429 0.891429 0 0 0 1 2
25 1 10.6971 0 0 0 0 0 1 3
26 1 10.6829 1.7959 1.78325 -0.696611 4.38546 2.7498 1 1
27 1 12.5019 21.39 1.79286 5.528 0.798078 -3.25618 1 1
28 1 12.48 1.78286 0 0 0 0 1 3
29 1 11.5886 0.891429 0.891429 0 0 0 1 2
30 1 11.61 2.7028 2.67771 9.45192 1.80302 2.66116 1 1
31 1 13.394 0.89241 2.7105 -7.60484 4.69746 -10.1709 1 1
32 1 13.3714 2.67429 0.891429 0 0 0 1 2
33 1 14.2629 0 0 0 0 0 1 3
34 1 14.2559 1.742 1.78053 7.83614 1.26128 -5.60167 1 1
35 1 16.0549 21.3758 1.80231 2.80032 -1.99934 -6.13108 1 1
36 1 16.0457 1.78286 0 0 0 0 1 3
37 1 15.1543 0.891429 0.891429 0 0 0 1 2
38 1 15.125 2.6547 2.68889 -5.02848 -1.26581 -2.27516 1 1
39 1 16.9491 0.897718 2.69673 4.13621 1.22197 1.54281 1 1
40 1 16.9371 2.67429 0.891429 0 0 0 1 2
41 1 17.8286 0 0 0 0 0 1 3
42 1 17.8243 1.78369 1.78494 5.23903 4.03628 7.36304 1 1
43 1 19.6582 0.011141 1.83943 1.28782 -5.3803 4.25649 1 1
44 1 19.6114 1.78286 0 0 0 0 1 3
45 1 18.72 0.891429 0.891429 0 0 0 1 2
46 1 18.7134 2.67265 2.67904 -4.91584 -1.85552 -0.124244 1 1
47 1 20.4881 0.962454 2.66947 0.185617 -3.14254 8.06701 1 1
48 1 20.5029 2.67429 0.891429 0 0 0 1 2
49 1 0 3.56572 0 0 0 0 1 3
50 1 0.0219643 5.34603 1.7936 -2.26916 -4.46534 4.99709 1 1
51 1 1.76818 3.57671 1.78391 -6.80669 -4.23817 1.94022 1 1
52 1 1.78286 5.34857 0 0 0 0 1 3
53 1 0.891429 4.45714 0.891429 0 0 0 1 2
54 1 0.914735 6.23652 2.70183 -2.09021 0.524725 -2.73983 1 1
55 1 2.65455 4.47685 2.73186 -3.36665 -2.00513 0.130347 1 1
56 1 2.67429 6.24 0.891429 0 0 0 1 2
57 1 3.56572 3.56572 0 0 0 0 1 3
58 1 3.57193 5.31621 1.78767 -2.285 1.0169 1.60559 1 1
59 1 5.34375 3.56377 1.80337 4.4517 -1.22652 -1.11882 1 1
60 1 5.34857 5.34857 0 0 0 0 1 3
61 1 4.45714 4.45714 0.891429 0 0 0 1 2
62 1 4.49183 6.21956 2.66882 -1.09958 -3.05162 1.57511 1 1
63 1 6.24395 4.45438 2.69297 -2.30012 -5.09394 -0.363081 1 1
64 1 6.24 6.24 0.891429 0 0 0 1 2
65 1 7.13143 3.56572 0 0 0 0 1 3
66 1 7.13251 5.32344 1.80319 3.57194 -3.24986 5.31655 1 1
67 1 8.89664 3.54847 1.82466 -4.18122 -5.24419 -6.78275 1 1
68 1 8.91429 5.34857 0 0 0 0 1 3
69 1 8.02286 4.45714 0.891429 0 0 0 1 2
70 1 8.01728 6.25174 2.68817 -1.71186 0.0437849 -0.360019 1 1
71 1 9.81171 4.46082 2.70038 -0.615989 0.384428 1.94984 1 1
72 1 9.80572 6.24 0.891429 0 0 0 1 2
73 1 10.6971 3.56572 0 0 0 0 1 3
74 1 10.7265 5.34464 1.80337 -2.81127 5.81875 -4.98563 1 1
75 1 12.5064 3.57835 1.78284 3.83338 2.91728 0.622479 1 1
76 1 12.48 5.34857 0 0 0 0 1 3
77 1 11.5886 4.45714 0.891429 0 0 0 1 2
78 1 11.5475 6.29644 2.73791 3.04179 -3.90401 -2.43009 1 1
79 1 13.3668 4.44517 2.71753 -3.2504 5.13848 4.3163 1 1
80 1 13.3714 6.24 0.891429 0 0 0 1 2
81 1 14.2629 3.56572 0 0 0 0 1 3
82 1 14.2677 5.36364 1.79295 -2.41728 -2.56983 4.75171 1 1
83 1 16.0168 3.5557 1.81013 0.870593 5.0583 -0.666086 1 1
84 1 16.0457 5.34857 0 0 0 0 1 3
85 1 15.1543 4.45714 0.891429 0 0 0 1 2
86 1 15.1651 6.23816 2.6564 -8.45778 6.52087 0.705125 1 1
87 1 16.959 4.40518 2.69819 -5.67859 4.10716 5.18302 1 1
88 1 16.9371 6.24 0.891429 0 0 0 1 2
89 1 17.8286 3.56572 0 0 0 0 1 3
90 1 17.7997 5.31847 1.77551 3.6126 -6.04241 0.911363 1 1
91 1 19.6019 3.56207 1.75229 0.815173 3.45541 4.00436 1 1
92 1 19.6114 5.34857 0 0 0 0 1 3
93 1 18.72 4.45714 0.891429 0 0 0 1 2
94 1 18.6979 6.22204 2.70052 -8.59702 -0.894301 8.90564 1 1
95 1 20.511 4.45062 2.70564 -2.06862 6.67429 -6.86891 1 1
96 1 20.5029 6.24 0.891429 0 0 0 1 2
97 1 0 7.13143 0 0 0 0 1 3
98 1 0.0166879 8.92505 1.80557 -8.6058 5.68934 6.77363 1 1
99 1 1.78027 7.12689 1.78377 -0.786928 4.57343 -0.61061 1 1
100 1 1.78286 8.91429 0 0 0 0 1 3
101 1 0.891429 8.02286 0.891429 0 0 0 1 2
102 1 0.893257 9.8062 2.72068 1.60752 3.14435 3.45119 1 1
103 1 2.70021 8.05672 2.62241 -3.27243 8.58104 0.00736279 1 1
104 1 2.67429 9.80572 0.891429 0 0 0 1 2
105 1 3.56572 7.13143 0 0 0 0 1 3
106 1 3.55672 8.90411 1.73808 2.46266 11.4908 -3.32403 1 1
107 1 5.39186 7.12965 1.78563 -0.833004 3.84387 -6.82977 1 1
108 1 5.34857 8.91429 0 0 0 0 1 3
109 1 4.45714 8.02286 0.891429 0 0 0 1 2
110 1 4.44022 9.7717 2.62024 -3.4109 0.99522 -6.0226 1 1
111 1 6.26279 8.00689 2.72148 -2.36258 -6.57859 -1.27868 1 1
112 1 6.24 9.80572 0.891429 0 0 0 1 2
113 1 7.13143 7.13143 0 0 0 0 1 3
114 1 7.13508 8.88089 1.75542 -2.07866 7.31911 -3.3667 1 1
115 1 8.88061 7.13297 1.8095 -0.936448 1.73788 0.401135 1 1
116 1 8.91429 8.91429 0 0 0 0 1 3
117 1 8.02286 8.02286 0.891429 0 0 0 1 2
118 1 8.06543 9.79882 2.65188 -4.55025 -2.60001 -4.10766 1 1
119 1 9.76813 8.02125 2.69146 7.26624 4.63035 6.07488 1 1
120 1 9.80572 9.80572 0.891429 0 0 0 1 2
121 1 10.6971 7.13143 0 0 0 0 1 3
122 1 10.6906 8.89582 1.81521 8.31605 -1.05867 1.5485 1 1
123 1 12.4679 7.11106 1.78056 -2.81762 4.56435 -7.18452 1 1
124 1 12.48 8.91429 0 0 0 0 1 3
125 1 11.5886 8.02286 0.891429 0 0 0 1 2
126 1 11.6002 9.77108 2.73766 2.2542 -2.42245 -4.44839 1 1
127 1 13.358 8.02858 2.6974 -5.81407 3.79834 -2.20952 1 1
128 1 13.3714 9.80572 0.891429 0 0 0 1 2
129 1 14.2629 7.13143 0 0 0 0 1 3
130 1 14.248 8.9029 1.81057 -5.02417 1.58406 6.21711 1 1
131 1 16.0424 7.13655 1.79582 -6.33972 2.26843 3.16126 1 1
132 1 16.0457 8.91429 0 0 0 0 1 3
133 1 15.1543 8.02286 0.891429 0 0 0 1 2
134 1 15.1704 9.78021 2.7153 7.46001 0.143803 1.39773 1 1
135 1 16.9181 8.0395 2.74104 -9.07473 -1.08896 6.53304 1 1
136 1 16.9371 9.80572 0.891429 0 0 0 1 2
137 1 17.8286 7.13143 0 0 0 0 1 3
138 1 17.8143 8.90162 1.82497 -2.57282 -5.5618 -0.13865 1 1
139 1 19.5671 7.13964 1.78697 -4.48216 -2.12771 -1.20396 1 1
140 1 19.6114 8.91429 0 0 0 0 1 3
141 1 18.72 8.02286 0.891429 0 0 0 1 2
142 1 18.7577 9.81005 2.66657 1.45949 15.0979 -3.15164 1 1
143 1 20.4916 8.0405 2.67757 3.76614 0.582129 -1.81073 1 1
144 1 20.5029 9.80572 0.891429 0 0 0 1 2
145 1 0 10.6971 0 0 0 0 1 3
146 1 21.3756 12.5202 1.85511 -3.0801 -2.18086 -1.90367 1 1
147 1 1.77248 10.7051 1.78099 1.32757 -5.55896 -2.03707 1 1
148 1 1.78286 12.48 0 0 0 0 1 3
149 1 0.891429 11.5886 0.891429 0 0 0 1 2
150 1 0.898093 13.4073 2.71538 1.45156 0.194452 -3.17062 1 1
151 1 2.67418 11.5952 2.68827 5.07456 1.82988 4.36791 1 1
152 1 2.67429 13.3714 0.891429 0 0 0 1 2
153 1 3.56572 10.6971 0 0 0 0 1 3
154 1 3.56389 12.4768 1.84117 9.4175 -6.76787 3.19461 1 1
155 1 5.29862 10.6927 1.76777 -2.33658 5.53427 -3.91471 1 1
156 1 5.34857 12.48 0 0 0 0 1 3
157 1 4.45714 11.5886 0.891429 0 0 0 1 2
158 1 4.46635 13.4468 2.69501 1.92342 -8.33626 -2.26998 1 1
159 1 6.26604 11.6226 2.66026 0.241666 0.583628 17.8038 1 1
160 1 6.24 13.3714 0.891429 0 0 0 1 2
161 1 7.13143 10.6971 0 0 0 0 1 3
162 1 7.12837 12.4469 1.72665 8.11531 3.00934 4.10829 1 1
163 1 8.91742 10.6899 1.78609 -5.69893 -0.704738 -1.8972 1 1
164 1 8.91429 12.48 0 0 0 0 1 3
165 1 8.02286 11.5886 0.891429 0 0 0 1 2
166 1 8.03978 13.3728 2.64556 5.35169 1.33055 -3.26893 1 1
167 1 9.80673 11.5851 2.67132 -2.79507 6.90789 1.28084 1 1
168 1 9.80572 13.3714 0.891429 0 0 0 1 2
169 1 10.6971 10.6971 0 0 0 0 1 3
170 1 10.726 12.4737 1.72463 10.7247 -1.35685 7.82969 1 1
171 1 12.4619 10.7075 1.7778 4.13961 1.56312 0.067888 1 1
172 1 12.48 12.48 0 0 0 0 1 3
173 1 11.5886 11.5886 0.891429 0 0 0 1 2
174 1 11.5966 13.3562 2.65781 -3.35301 -2.873 5.55199 1 1
175 1 13.3646 11.5565 2.65915 -0.991973 2.19763 0.0685066 1 1
176 1 13.3714 13.3714 0.891429 0 0 0 1 2
177 1 14.2629 10.6971 0 0 0 0 1 3
178 1 14.2539 12.4969 1.78205 -4.26876 4.76897 1.84789 1 1
179 1 16.0928 10.6903 1.78395 0.305394 1.83487 3.82697 1 1
180 1 16.0457 12.48 0 0 0 0 1 3
181 1 15.1543 11.5886 0.891429 0 0 0 1 2
182 1 15.1587 13.3395 2.63412 -1.48465 -3.1095 -0.344201 1 1
183 1 16.9636 11.567 2.69062 -8.5922 -2.78985 -3.82383 1 1
184 1 16.9371 13.3714 0.891429 0 0 0 1 2
185 1 17.8286 10.6971 0 0 0 0 1 3
186 1 17.8478 12.4881 1.78876 6.45378 0.0785727 0.509759 1 1
187 1 19.6249 10.7038 1.78506 -6.3848 -1.3829 0.647811 1 1
188 1 19.6114 12.48 0 0 0 0 1 3
189 1 18.72 11.5886 0.891429 0 0 0 1 2
190 1 18.6981 13.3713 2.72143 -4.96558 4.38578 5.6185 1 1
191 1 20.5041 11.6112 2.70476 1.66267 -8.47632 0.503802 1 1
192 1 20.5029 13.3714 0.891429 0 0 0 1 2
193 1 0 14.2629 0 0 0 0 1 3
194 1 21.3917 16.092 1.73642 0.376029 0.993236 5.42145 1 1
195 1 1.77998 14.2629 1.80746 -7.76625 5.14063 1.8556 1 1
196 1 1.78286 16.0457 0 0 0 0 1 3
197 1 0.891429 15.1543 0.891429 0 0 0 1 2
198 1 0.93245 16.9588 2.64102 11.4431 2.11776 6.24315 1 1
199 1 2.67512 15.1703 2.68846 1.97854 -1.08305 5.14253 1 1
200 1 2.67429 16.9371 0.891429 0 0 0 1 2
201 1 3.56572 14.2629 0 0 0 0 1 3
202 1 3.6006 16.0048 1.79899 -9.83845 -5.56657 0.0725873 1 1
203 1 5.40182 14.2831 1.78462 -7.14754 2.61613 -5.80693 1 1
204 1 5.34857 16.0457 0 0 0 0 1 3
205 1 4.45714 15.1543 0.891429 0 0 0 1 2
206 1 4.4623 16.9525 2.66536 -4.93871 -4.27037 -5.53834 1 1
207 1 6.26994 15.1299 2.65509 2.4843 0.138199 0.729732 1 1
208 1 6.24 16.9371 0.891429 0 0 0 1 2
209 1 7.13143 14.2629 0 0 0 0 1 3
210 1 7.14331 16.059 1.74874 -0.722573 -1.14318 5.23846 1 1
211 1 8.93357 14.2482 1.78374 5.33951 -1.49438 1.47513 1 1
212 1 8.91429 16.0457 0 0 0 0 1 3
213 1 8.02286 15.1543 0.891429 0 0 0 1 2
214 1 8.03027 16.9473 2.61413 -1.41226 -8.15984 -0.700798 1 1
215 1 9.81722 15.1515 2.64802 8.70162 0.576062 -0.362439 1 1
216 1 9.80572 16.9371 0.891429 0 0 0 1 2
217 1 10.6971 14.2629 0 0 0 0 1 3
218 1 10.6892 16.0656 1.81607 -1.21628 1.25138 -2.93689 1 1
219 1 12.4748 14.2762 1.80283 -2.74559 -2.96901 11.5673 1 1
220 1 12.48 16.0457 0 0 0 0 1 3
221 1 11.5886 15.1543 0.891429 0 0 0 1 2
222 1 11.6041 16.9704 2.66963 -0.163813 -8.16134 3.86772 1 1
223 1 13.3825 15.1554 2.68566 -2.03094 8.65299 6.98595 1 1
224 1 13.3714 16.9371 0.891429 0 0 0 1 2
225 1 14.2629 14.2629 0 0 0 0 1 3
226 1 14.2556 16.0771 1.77134 2.57966 0.781688 5.03057 1 1
227 1 16.0366 14.2345 1.80961 1.33461 7.27699 3.78853 1 1
228 1 16.0457 16.0457 0 0 0 0 1 3
229 1 15.1543 15.1543 0.891429 0 0 0 1 2
230 1 15.1487 16.9211 2.70472 -4.04814 6.38288 -2.27829 1 1
231 1 16.9363 15.2125 2.68552 -1.48086 -4.5311 -2.72819 1 1
232 1 16.9371 16.9371 0.891429 0 0 0 1 2
233 1 17.8286 14.2629 0 0 0 0 1 3
234 1 17.8005 16.0514 1.77148 4.82691 -5.89962 -0.283565 1 1
235 1 19.6276 14.2985 1.80749 -1.07083 -7.91886 8.85562 1 1
236 1 19.6114 16.0457 0 0 0 0 1 3
237 1 18.72 15.1543 0.891429 0 0 0 1 2
238 1 18.758 16.9344 2.64641 9.264 -4.98554 1.01551 1 1
239 1 20.5195 15.1783 2.65916 -6.34402 5.20713 1.23168 1 1
240 1 20.5029 16.9371 0.891429 0 0 0 1 2
241 1 0 17.8286 0 0 0 0 1 3
242 1 0.0247532 19.6605 1.75676 -3.98772 6.59866 3.7942 1 1
243 1 1.79611 17.8139 1.82305 4.71291 -1.49066 -1.22356 1 1
244 1 1.78286 19.6114 0 0 0 0 1 3
245 1 0.891429 18.72 0.891429 0 0 0 1 2
246 1 0.914064 20.5388 2.70508 9.45192 -3.54879 -4.17809 1 1
247 1 2.67977 18.747 2.68501 -0.753579 -5.14839 -1.5007 1 1
248 1 2.67429 20.5029 0.891429 0 0 0 1 2
249 1 3.56572 17.8286 0 0 0 0 1 3
250 1 3.55908 19.6202 1.7394 3.21716 1.35307 7.54793 1 1
251 1 5.36009 17.8577 1.79317 -0.55659 -3.55216 -1.68764 1 1
252 1 5.34857 19.6114 0 0 0 0 1 3
253 1 4.45714 18.72 0.891429 0 0 0 1 2
254 1 4.38034 20.5354 2.68162 -6.74907 -0.221756 -3.85377 1 1
255 1 6.25412 18.6883 2.68275 -3.87923 -0.846268 5.32469 1 1
256 1 6.24 20.5029 0.891429 0 0 0 1 2
257 1 7.13143 17.8286 0 0 0 0 1 3
258 1 7.13866 19.5858 1.79084 5.31912 1.90502 1.43972 1 1
259 1 8.89854 17.8516 1.77583 6.72506 -4.18651 -11.6118 1 1
260 1 8.91429 19.6114 0 0 0 0 1 3
261 1 8.02286 18.72 0.891429 0 0 0 1 2
262 1 7.99268 20.5041 2.7131 -15.8596 -0.288344 5.70007 1 1
263 1 9.80855 18.7464 2.66334 -1.5394 -1.6161 -4.98683 1 1
264 1 9.80572 20.5029 0.891429 0 0 0 1 2
265 1 10.6971 17.8286 0 0 0 0 1 3
266 1 10.7392 19.5922 1.79625 2.79294 -7.88435 -1.41176 1 1
267 1 12.5194 17.8644 1.78698 5.11743 -10.805 1.40243 1 1
268 1 12.48 19.6114 0 0 0 0 1 3
269 1 11.5886 18.72 0.891429 0 0 0 1 2
270 1 11.5812 20.5089 2.73545 2.91193 -2.69944 -0.0434157 1 1
271 1 13.3612 18.7242 2.69539 -0.702852 -5.29962 1.66875 1 1
272 1 13.3714 20.5029 0.891429 0 0 0 1 2
273 1 14.2629 17.8286 0 0 0 0 1 3
274 1 14.2767 19.5933 1.80748 2.54336 3.9616 2.06246 1 1
275 1 16.0541 17.8123 1.80532 -3.98178 0.669701 2.62552 1 1
276 1 16.0457 19.6114 0 0 0 0 1 3
277 1 15.1543 18.72 0.891429 0 0 0 1 2
278 1 15.1843 20.4967 2.69879 -3.65724 -7.26937 2.9055 1 1
279 1 16.9756 18.699 2.701 -6.66752 0.638726 3.86102 1 1
280 1 16.9371 20.5029 0.891429 0 0 0 1 2
281 1 17.8286 17.8286 0 0 0 0 1 3
282 1 17.8363 19.6193 1.78577 0.270398 2.00315 -0.616741 1 1
283 1 19.614 17.8821 1.76122 2.29978 0.0501853 2.54242 1 1
284 1 19.6114 19.6114 0 0 0 0 1 3
285 1 18.72 18.72 0.891429 0 0 0 1 2
286 1 18.7277 20.5439 2.67731 5.81107 -3.89215 2.73672 1 1
287 1 20.5294 18.721 2.67134 -0.837936 -2.80599 0.132047 1 1
288 1 20.5029 20.5029 0.891429 0 0 0 1 2
289 1 0.0421824 0.0141478 3.62575 -2.81996 -3.25914 7.13761 1 1
290 1 21.3776 1.7894 5.38377 4.20617 -2.68501 5.41332 1 1
291 1 1.77774 21.3911 5.3938 7.36486 -7.86563 2.87917 1 1
292 1 1.79547 1.80123 3.58439 0.820073 8.96045 -3.42588 1 1
293 1 0.898591 0.952239 4.50851 -2.99807 0.455855 3.82591 1 1
294 1 0.888875 2.66406 6.30212 -1.17136 -0.48093 -6.9524 1 1
295 1 2.62249 0.892234 6.29978 -5.05709 8.00076 2.36947 1 1
296 1 2.69583 2.67266 4.51773 -4.60953 -5.81269 1.87741 1 1
297 1 3.50163 0.0276219 3.53912 0.000502488 -2.33946 -2.70983 1 1
298 1 3.55793 1.77324 5.42073 7.15322 2.6558 -3.79596 1 1
299 1 5.27392 21.3573 5.37487 -0.197009 3.82015 -7.61482 1 1
300 1 5.34718 1.80326 3.60708 7.52679 -4.84133 -0.178686 1 1
301 1 4.45967 0.881824 4.48926 -2.59711 9.11085 11.224 1 1
302 1 4.41207 2.64575 6.31905 6.27222 -7.71043 3.66674 1 1
303 1 6.23251 0.875031 6.28432 1.41383 0.469979 0.0913231 1 1
304 1 6.25611 2.64699 4.52454 -1.35315 5.58424 5.92594 1 1
305 1 7.10922 0.0051145 3.57687 -1.1678 2.41444 -3.82657 1 1
306 1 7.11138 1.77892 5.40732 -1.72459 -2.78598 1.80183 1 1
307 1 8.85972 0.0216017 5.41129 -4.04698 -4.25415 0.373128 1 1
308 1 8.91682 1.7823 3.56797 5.52862 8.8488 4.11323 1 1
309 1 8.00346 0.887269 4.45507 8.46121 1.2076 10.5037 1 1
310 1 8.0745 2.66295 6.29106 1.07886 0.0861328 2.13919 1 1
311 1 9.77162 0.850753 6.31362 -2.76795 3.64153 -2.9789 1 1
312 1 9.80243 2.68 4.46355 -2.11647 1.4704 6.50063 1 1
313 1 10.6575 0.0128533 3.57649 1.84573 -4.72786 2.21759 1 1
314 1 10.6473 1.78705 5.36058 7.00937 -5.7305 5.64256 1 1
315 1 12.4326 21.3621 5.35829 -1.66251 1.47678 6.77315 1 1
316 1 12.4396 1.77181 3.55981 -1.14031 -0.370357 -0.392844 1 1
317 1 11.5323 0.888474 4.44946 2.59549 5.78005 2.67579 1 1
318 1 11.5857 2.66239 6.32222 1.21202 -1.80282 0.710784 1 1
319 1 13.3506 0.8869 6.28153 5.46843 -5.86072 5.11657 1 1
320 1 13.3792 2.65025 4.46713 -0.177251 1.80802 0.932203 1 1
321 1 14.2701 21.3865 3.55857 6.89548 -4.43057 0.479846 1 1
322 1 14.2936 1.76386 5.37495 6.45647 2.60852 -6.0122 1 1
323 1 16.018 21.3867 5.33489 -0.126121 4.40629 1.43803 1 1
324 1 16.0702 1.7916 3.5642 -6.8682 10.2233 4.67089 1 1
325 1 15.1785 0.914359 4.45989 -1.64501 1.26037 -1.45371 1 1
326 1 15.1323 2.67018 6.28287 -2.71043 -1.55418 3.6641 1 1
327 1 16.9198 0.862404 6.27942 5.44495 3.26601 5.56343 1 1
328 1 16.9091 2.68533 4.48508 -2.14356 9.07601 2.28729 1 1
329 1 17.8401 0.00444194 3.55007 -4.49524 5.21741 3.39046 1 1
330 1 17.8441 1.72347 5.37627 -2.39169 0.569096 -4.79472 1 1
331 1 19.6017 0.00384173 5.35503 -0.737005 4.69619 -7.23848 1 1
332 1 19.6106 1.78783 3.55209 0.75882 1.07507 -4.38768 1 1
333 1 18.7273 0.902235 4.51979 -6.09032 -1.02709 4.23493 1 1
334 1 18.7081 2.68251 6.28223 8.62474 6.33964 2.53043 1 1
335 1 20.4784 0.887192 6.28423 -4.73724 -1.34495 6.77724 1 1
336 1 20.4856 2.65877 4.49546 0.553747 2.78758 7.62435 1 1
337 1 0.034481 3.55859 3.6042 4.91149 -0.374479 2.9891 1 1
338 1 0.0476255 5.35091 5.38103 -3.48201 0.00610269 -2.37454 1 1
339 1 1.7973 3.55684 5.38743 5.7706 0.213951 0.080033 1 1
340 1 1.79059 5.34117 3.58534 -2.06916 -5.65011 -0.359114 1 1
341 1 0.925004 4.42332 4.48058 4.76602 5.09802 0.398746 1 1
342 1 0.911217 6.21596 6.27204 -0.73881 -4.07656 10.659 1 1
343 1 2.6789 4.45095 6.29157 -1.45172 -1.08785 1.06256 1 1
344 1 2.73746 6.29706 4.47653 2.58162 -2.69333 3.58567 1 1
345 1 3.59287 3.56498 3.61143 0.898939 -1.6616 -15.204 1 1
346 1 3.64112 5.37211 5.41894 -3.03611 -3.46417 -0.766952 1 1
347 1 5.33364 3.56653 5.40599 -0.942563 3.99871 2.48237 1 1
348 1 5.36704 5.33033 3.58007 7.10534 1.55062 0.433249 1 1
349 1 4.4875 4.47111 4.52221 -1.23893 1.09952 -7.99106 1 1
350 1 4.48389 6.28398 6.29507 3.92374 2.82074 -3.08141 1 1
351 1 6.26036 4.49082 6.26123 -3.70146 -0.390147 -3.05557 1 1
352 1 6.25385 6.1999 4.48921 -4.01665 3.04653 -0.186023 1 1
353 1 7.12964 3.58016 3.6115 7.15947 -1.41493 0.866966 1 1
354 1 7.16832 5.36616 5.373 9.88603 0.896217 2.9984 1 1
355 1 8.93031 3.57708 5.39058 -0.269009 4.79544 2.15973 1 1
356 1 8.87629 5.36278 3.6192 3.47079 -0.914939 8.35359 1 1
357 1 8.03185 4.48278 4.49744 -11.2564 0.530306 8.53885 1 1
358 1 8.03659 6.24178 6.31143 -2.87157 6.22398 1.68419 1 1
359 1 9.80198 4.44688 6.33429 0.544493 -1.3353 0.648692 1 1
360 1 9.78069 6.24684 4.47013 -2.819 3.38137 -2.9567 1 1
361 1 10.7517 3.55457 3.58596 -2.79459 -1.64213 -2.10986 1 1
362 1 10.6804 5.36466 5.391 8.7855 -1.83247 4.88282 1 1
363 1 12.4495 3.53427 5.41828 3.2004 0.775506 -2.61696 1 1
364 1 12.4559 5.42127 3.59456 2.83562 10.8703 11.5339 1 1
365 1 11.5679 4.4401 4.50315 2.46371 4.53344 -4.55183 1 1
366 1 11.5331 6.22334 6.26791 0.80779 6.51685 1.67905 1 1
367 1 13.3696 4.45635 6.29688 -4.93773 -1.82311 3.22644 1 1
368 1 13.3755 6.25124 4.52124 0.884136 -6.32006 2.5633 1 1
369 1 14.2075 3.54305 3.59176 7.28015 -3.7013 0.158666 1 1
370 1 14.2277 5.34316 5.38675 -4.23317 -4.32398 0.309048 1 1
371 1 16.0624 3.57447 5.42086 -0.951111 0.19723 -4.26291 1 1
372 1 16.0035 5.31214 3.58911 3.96131 -1.04427 -1.45565 1 1
373 1 15.1312 4.41463 4.51408 -11.1119 2.02708 -1.71132 1 1
374 1 15.1582 6.25544 6.33183 -0.669542 -5.92265 -6.43688 1 1
375 1 16.9237 4.49064 6.30442 -3.50629 5.26774 -4.86212 1 1
376 1 16.9302 6.21528 4.49414 -1.88385 6.81246 4.28299 1 1
377 1 17.8275 3.55557 3.53366 -0.131936 2.17506 -8.78835 1 1
378 1 17.8168 5.34534 5.37433 1.01611 -8.00381 5.0377 1 1
379 1 19.5835 3.50367 5.35755 -0.33183 0.858315 8.2503 1 1
380 1 19.6509 5.35817 3.59481 -10.5801 2.84412 4.27931 1 1
381 1 18.7467 4.45833 4.44784 -0.611415 -1.96547 -4.66287 1 1
382 1 18.7243 6.2115 6.25467 2.82012 0.176652 9.49891 1 1
383 1 20.5138 4.40471 6.3195 -0.257088 1.44874 -5.3942 1 1
384 1 20.5735 6.23872 4.49002 8.10798 8.66878 7.02774 1 1
385 1 0.042425 7.16356 3.627 -1.18118 4.25166 3.0273 1 1
386 1 21.3762 8.92189 5.39865 7.41313 -2.66791 0.915487 1 1
387 1 1.80491 7.12624 5.36082 3.43089 3.91278 4.15741 1 1
388 1 1.8277 8.92368 3.60226 2.20618 3.25465 3.90385 1 1
389 1 0.921334 8.05816 4.48311 7.10451 2.61623 2.99654 1 1
390 1 0.877819 9.78064 6.26028 0.601786 1.1111 -3.1221 1 1
391 1 2.72652 8.0197 6.28488 0.0931931 2.2355 2.20594 1 1
392 1 2.65922 9.78413 4.47882 7.2207 -2.46177 1.94616 1 1
393 1 3.61859 7.17536 3.60556 7.26316 3.85505 2.36838 1 1
394 1 3.5683 8.94579 5.38432 1.01623 -2.02783 -3.16221 1 1
395 1 5.37395 7.14878 5.37138 10.0051 -2.21079 2.38893 1 1
396 1 5.37227 8.90087 3.55124 4.43722 -2.41099 -3.30485 1 1
397 1 4.48367 8.01341 4.4601 -0.216354 1.46889 5.97706 1 1
398 1 4.52321 9.78317 6.27041 1.15365 5.52081 3.62991 1 1
399 1 6.26725 8.0193 6.27318 4.56168 -1.7544 5.017 1 1
400 1 6.29197 9.81739 4.44977 4.40927 9.1204 3.06826 1 1
401 1 7.15687 7.1039 3.56832 -1.29663 5.97119 -4.9206 1 1
402 1 7.10948 8.90348 5.3767 -7.03844 4.88469 2.31394 1 1
403 1 8.88353 7.12178 5.32936 3.8382 -0.214345 0.179317 1 1
404 1 8.91472 8.92962 3.60443 0.267578 -0.0657799 4.93525 1 1
405 1 8.02444 8.03256 4.48729 -3.14763 -2.21084 -0.930795 1 1
406 1 8.03899 9.83365 6.28965 -2.23244 3.29264 9.2776 1 1
407 1 9.79231 7.99375 6.24773 0.796032 -1.27452 -5.27668 1 1
408 1 9.8168 9.80475 4.50742 -2.6589 -1.96297 4.53286 1 1
409 1 10.6897 7.15796 3.60194 11.5231 -2.84329 2.43472 1 1
410 1 10.6976 8.8854 5.38325 -3.63785 2.84704 3.90307 1 1
411 1 12.4491 7.13233 5.38437 -6.1625 -3.17223 3.81455 1 1
412 1 12.4769 8.93779 3.56917 -2.05604 0.443375 3.72239 1 1
413 1 11.5779 8.03037 4.46154 6.80532 2.89259 4.91712 1 1
414 1 11.5764 9.80768 6.26471 4.18676 1.97671 -0.517312 1 1
415 1 13.3594 8.00623 6.30464 -3.18084 7.0608 1.82682 1 1
416 1 13.3502 9.78472 4.47553 4.77801 9.25984 -0.0444336 1 1
417 1 14.2686 7.10596 3.61132 1.6513 -1.82643 0.220583 1 1
418 1 14.2566 8.89733 5.40207 -1.28239 -3.26655 9.85746 1 1
419 1 16.0225 7.10483 5.40301 3.92043 -7.80936 -6.15337 1 1
420 1 16.0474 8.89454 3.62432 9.09897 -5.79825 -1.98635 1 1
421 1 15.1524 8.00066 4.49315 -6.14165 -2.47561 -0.622518 1 1
422 1 15.1445 9.82362 6.28663 -4.74571 -0.518562 4.1592 1 1
423 1 16.9484 8.00444 6.25858 -1.20839 -5.91183 -3.17376 1 1
424 1 16.9781 9.79988 4.49418 -3.28476 0.378646 -6.09386 1 1
425 1 17.8404 7.04865 3.57762 -5.47876 10.603 4.86087 1 1
426 1 17.827 8.93596 5.33762 1.4528 2.81762 -4.43199 1 1
427 1 19.6564 7.15912 5.39932 2.1567 -8.36682 0.422538 1 1
428 1 19.5966 8.9057 3.58039 6.3336 -6.59024 9.41194 1 1
429 1 18.7135 7.97793 4.49697 4.66652 -2.89644 -1.59958 1 1
430 1 18.6994 9.79826 6.25822 0.964319 -4.93246 -5.10603 1 1
431 1 20.4961 8.02464 6.27755 2.05719 0.0243903 -3.93396 1 1
432 1 20.4873 9.82875 4.47259 0.988466 1.31145 0.596748 1 1
433 1 21.3941 10.7049 3.55831 -1.7729 -4.85512 1.39391 1 1
434 1 21.3724 12.4837 5.35423 -2.59388 7.22054 -0.395465 1 1
435 1 1.81129 10.6906 5.3234 1.55035 -6.144 -3.24297 1 1
436 1 1.76077 12.4727 3.58743 -1.57194 -8.53238 -3.89229 1 1
437 1 0.885629 11.5674 4.45895 -0.231821 -3.79468 -6.21413 1 1
438 1 0.875629 13.3922 6.28131 0.2902 1.9553 -2.71377 1 1
439 1 2.67377 11.5522 6.21763 -5.21857 4.70115 -0.019915 1 1
440 1 2.72929 13.3044 4.45972 5.67704 -2.02321 3.03227 1 1
441 1 3.57009 10.7001 3.6 1.82566 1.75062 2.75373 1 1
442 1 3.6336 12.4502 5.3631 -6.02614 -4.37836 3.06558 1 1
443 1 5.37219 10.6938 5.35148 3.48587 5.54549 -6.30301 1 1
444 1 5.34835 12.4621 3.55954 -1.16824 4.96172 -1.73143 1 1
445 1 4.49754 11.5673 4.46291 7.7057 -1.52846 5.64261 1 1
446 1 4.47829 13.3997 6.26341 5.36416 6.81065 5.00097 1 1
447 1 6.27693 11.5908 6.24538 -10.6068 9.36534 -8.57902 1 1
448 1 6.23416 13.355 4.47457 -0.632822 2.05426 1.87472 1 1
449 1 7.1222 10.7305 3.58791 1.4891 10.3074 1.76792 1 1
450 1 7.12833 12.5196 5.3729 4.07472 -1.87524 5.20965 1 1
451 1 8.91828 10.6759 5.37118 4.19833 1.36622 5.57205 1 1
452 1 8.91689 12.4509 3.55196 -0.0833866 0.214674 6.97613 1 1
453 1 8.01277 11.5787 4.47931 -0.943767 -2.0934 -1.85622 1 1
454 1 8.01299 13.381 6.24583 -1.95738 1.65118 -1.3956 1 1
455 1 9.80259 11.5951 6.29726 4.57108 -4.15131 3.97219 1 1
456 1 9.84291 13.3425 4.47043 1.7831 2.24169 7.35219 1 1
457 1 10.6939 10.7266 3.61412 -1.76764 -5.32934 5.48077 1 1
458 1 10.7023 12.4614 5.36749 3.44513 2.20775 0.643872 1 1
459 1 12.4637 10.6935 5.40199 -6.86188 4.81883 -1.8147 1 1
460 1 12.4798 12.4295 3.56537 0.175228 8.60103 2.96528 1 1
461 1 11.5985 11.6111 4.47362 1.16791 3.48097 -4.17539 1 1
462 1 11.5951 13.3918 6.25579 7.44501 -0.67974 2.85568 1 1
463 1 13.3662 11.5928 6.28203 5.66943 -8.90983 -3.84174 1 1
464 1 13.4148 13.3392 4.51584 4.03882 4.46701 0.552227 1 1
465 1 14.2978 10.6665 3.54951 8.10582 5.31048 4.87186 1 1
466 1 14.3146 12.4485 5.4086 -0.674907 -4.44548 -0.337702 1 1
467 1 16.0641 10.6978 5.3984 -4.74138 5.32337 4.33014 1 1
468 1 16.0805 12.5026 3.54373 -4.34293 -3.39915 0.666011 1 1
469 1 15.208 11.573 4.46687 0.789342 -1.55366 3.39403 1 1
470 1 15.2103 13.3541 6.28896 11.9815 1.06601 -2.39333 1 1
471 1 16.9578 11.5777 6.31053 -0.393785 3.70778 7.59424 1 1
472 1 16.8865 13.3788 4.51505 4.08411 1.81572 -7.1366 1 1
473 1 17.83 10.7128 3.58315 -0.160274 3.97753 7.89046 1 1
474 1 17.8624 12.5179 5.40322 -0.747353 2.05643 -4.84668 1 1
475 1 19.5792 10.7329 5.34736 -0.77247 -5.85598 2.23406 1 1
476 1 19.5813 12.5003 3.60269 6.02259 4.07703 8.48829 1 1
477 1 18.6923 11.6285 4.51158 3.23647 -5.98653 0.63894 1 1
478 1 18.7399 13.3742 6.32913 1.7859 -0.246892 3.49369 1 1
479 1 20.4686 11.5619 6.26093 1.7354 -2.5773 -2.21312 1 1
480 1 20.4552 13.3678 4.4944 7.86933 2.87275 3.07628 1 1
481 1 0.0105229 14.2789 3.5913 3.05835 -1.7822 3.52504 1 1
482 1 0.00741704 16.0275 5.43993 -2.52308 7.17954 5.40873 1 1
483 1 1.80728 14.2323 5.40578 -4.0697 3.12527 3.83686 1 1
484 1 1.80955 16.081 3.56976 -3.28007 7.96827 -1.88308 1 1
485 1 0.881298 15.1214 4.53738 4.72879 6.20396 -1.63982 1 1
486 1 0.914687 16.9642 6.30854 -3.63453 3.22477 3.66733 1 1
487 1 2.73723 15.1544 6.30822 3.1951 -0.680816 3.17183 1 1
488 1 2.64329 16.9452 4.48713 5.28473 -1.47304 0.516371 1 1
489 1 3.55953 14.2956 3.56199 1.40304 3.45724 6.65289 1 1
490 1 3.60235 16.058 5.35631 3.43201 -0.0125481 -2.89408 1 1
491 1 5.3552 14.2916 5.36917 2.31844 2.14196 -3.43928 1 1
492 1 5.33481 16.0479 3.51732 -5.09278 9.6533 5.23645 1 1
493 1 4.43969 15.1768 4.46384 -4.29191 5.11373 -1.81601 1 1
494 1 4.47658 16.8999 6.27123 8.14791 1.88458 5.51962 1 1
495 1 6.24583 15.1506 6.23729 8.08688 8.64545 5.98343 1 1
496 1 6.27867 16.9552 4.45034 -0.377906 6.27103 -3.57682 1 1
497 1 7.15538 14.2717 3.54273 -4.93639 -0.559449 -6.74861 1 1
498 1 7.14704 16.0526 5.36017 2.58037 3.93687 -2.21724 1 1
499 1 8.92666 14.2306 5.35147 -9.43372 -2.54342 -2.67816 1 1
500 1 8.92373 16.0365 3.55291 -0.646691 3.9376 -8.23634 1 1
501 1 8.0562 15.1703 4.44769 0.50282 4.86994 3.68624 1 1
502 1 8.02673 16.9024 6.25323 -4.94149 1.30261 1.51529 1 1
503 1 9.77316 15.1296 6.25769 4.59278 -6.73612 -1.66161 1 1
504 1 9.77471 16.9551 4.46417 -5.11081 -11.1992 4.32594 1 1
505 1 10.7381 14.2537 3.55641 -7.30173 -5.27669 5.20775 1 1
506 1 10.6627 16.0385 5.34076 -10.5044 -0.145507 -5.38319 1 1
507 1 12.4889 14.2524 5.38377 2.77186 0.288038 -1.91856 1 1
508 1 12.5093 16.0487 3.54644 -1.69509 1.97203 -0.52555 1 1
509 1 11.5901 15.1425 4.47532 6.53509 1.30829 -1.15245 1 1
510 1 11.5505 16.9391 6.27015 -2.6119 -1.05628 -9.10982 1 1
511 1 13.3577 15.1261 6.28451 3.20722 -1.50235 1.62566 1 1
512 1 13.3879 16.9458 4.48428 -2.09996 5.72545 2.56852 1 1
513 1 14.2603 14.2392 3.49598 -1.8683 -3.23617 -2.2913 1 1
514 1 14.2665 16.0505 5.37741 11.7519 5.5229 0.974368 1 1
515 1 16.0266 14.2844 5.41072 -0.856457 6.27105 -0.560133 1 1
516 1 16.034 16.0869 3.54063 5.13703 2.68406 -6.3871 1 1
517 1 15.1915 15.1453 4.45243 7.59151 -1.13957 -4.09431 1 1
518 1 15.1731 16.911 6.28653 0.866103 4.19758 -4.41253 1 1
519 1 16.8913 15.1739 6.31856 2.19571 8.88261 1.35191 1 1
520 1 16.9623 16.9666 4.50975 -5.54922 8.87823 0.489985 1 1
521 1 17.8098 14.302 3.61109 -3.79462 7.84624 4.09124 1 1
522 1 17.8061 16.0273 5.41119 -2.09417 -2.05731 1.10258 1 1
523 1 19.6015 14.2452 5.42105 -3.96763 -4.94766 -6.89015 1 1
524 1 19.6941 16.0731 3.59457 2.43593 -0.42624 2.55449 1 1
525 1 18.7206 15.149 4.51365 1.68035 0.0186389 4.02164 1 1
526 1 18.7069 16.9429 6.27712 -2.20453 -4.78752 -0.715802 1 1
527 1 20.4783 15.1696 6.3431 -1.53224 -8.30463 -4.26535 1 1
528 1 20.5403 17.0012 4.4948 5.20344 0.115394 5.1389 1 1
529 1 0.0456099 17.8347 3.57821 -3.13509 -1.3266 0.551334 1 1
530 1 0.0313978 19.6429 5.32638 8.35765 2.23 0.491184 1 1
531 1 1.7927 17.8125 5.39569 -3.21526 -6.43855 -2.5865 1 1
532 1 1.81647 19.6449 3.59203 -1.63192 4.80106 2.55075 1 1
533 1 0.8844 18.7545 4.44011 3.25991 -1.50756 0.405024 1 1
534 1 0.857661 20.5119 6.31669 11.4203 2.72712 3.78683 1 1
535 1 2.67449 18.7075 6.29635 -1.8261 -5.10271 -8.73382 1 1
536 1 2.68787 20.5693 4.50494 -2.32137 -1.98846 1.40342 1 1
537 1 3.53829 17.8452 3.57009 3.55596 -0.977667 -4.56075 1 1
538 1 3.53899 19.6583 5.39744 0.710602 -1.97057 -0.0826827 1 1
539 1 5.37846 17.8075 5.35616 2.04954 10.4107 1.2259 1 1
540 1 5.33263 19.6139 3.56269 -0.999943 6.14198 -2.29194 1 1
541 1 4.43526 18.7364 4.46911 0.76998 7.04404 -6.58065 1 1
542 1 4.42574 20.4887 6.3169 1.67886 0.985947 1.29182 1 1
543 1 6.23512 18.7154 6.27936 -8.51537 0.596478 3.75698 1 1
544 1 6.25414 20.5152 4.46872 0.62504 -7.73268 -3.64248 1 1
545 1 7.18031 17.8078 3.56391 1.12897 -1.26653 3.07018 1 1
546 1 7.09359 19.6437 5.33726 -8.10229 0.397809 -2.99263 1 1
547 1 8.9075 17.837 5.38397 -0.531572 -3.04257 -0.0900388 1 1
548 1 8.88265 19.6447 3.63561 -5.46747 -0.252133 1.22644 1 1
549 1 7.99819 18.7168 4.51977 -4.23011 0.866902 2.76379 1 1
550 1 7.96492 20.4849 6.31309 -6.85918 -3.69505 -1.0655 1 1
551 1 9.77755 18.7657 6.2772 -2.08374 2.90063 -3.48437 1 1
552 1 9.79305 20.5189 4.51067 -3.12814 -4.06908 0.589103 1 1
553 1 10.7022 17.8435 3.57467 2.65192 -0.86584 -7.72737 1 1
554 1 10.6757 19.604 5.34625 3.96424 2.22025 0.454865 1 1
555 1 12.479 17.8486 5.39948 1.49913 0.531004 1.5766 1 1
556 1 12.517 19.5799 3.60901 -6.41007 -3.90358 -2.60352 1 1
557 1 11.5599 18.7364 4.47418 0.207148 0.165902 -4.47355 1 1