ITEM: TIMESTEP
750
ITEM: NUMBER OF ATOMS
2953
ITEM: BOX BOUNDS pp pp mm
0.0000000000000000e+00 2.1394294200000001e+01
0.0000000000000000e+00 2.1394294200000001e+01
-4.4571446250000002e-01 5.3485735500000004e+01
ITEM: ATOMS id type x y z vx vy vz v_is_diamond c_structure_type
1 1 0 0 0 0 0 0 1 3
2 1 21.3726 1.79554 1.80704 7.51415 -9.37444 9.32242 1 1
3 1 1.7865 0.0167702 1.76795 4.69269 -0.343538 -3.53975 1 1
4 1 1.78286 1.78286 0 0 0 0 1 3
5 1 0.891429 0.891429 0.891429 0 0 0 1 2
6 1 0.880108 2.64954 2.73494 -5.71159 3.35166 -2.3209 1 1
7 1 2.6731 0.877552 2.69645 -9.11302 2.60479 2.52646 1 1
8 1 2.67429 2.67429 0.891429 0 0 0 1 2
9 1 3.56572 0 0 0 0 0 1 3
10 1 3.55783 1.76689 1.78962 1.9973 -5.38358 -3.22005 1 1
11 1 5.36929 0.00177318 1.74109 -1.43623 -7.80684 -0.118305 1 1
12 1 5.34857 1.78286 0 0 0 0 1 3
13 1 4.45714 0.891429 0.891429 0 0 0 1 2
14 1 4.45628 2.72552 2.63785 6.87964 -3.80766 3.01253 1 1
15 1 6.24635 0.890126 2.71988 8.56136 -4.21649 -2.86861 1 1
16 1 6.24 2.67429 0.891429 0 0 0 1 2
17 1 7.13143 0 0 0 0 0 1 3
18 1 7.1558 1.79602 1.83185 10.7704 -3.5371 1.3007 1 1
19 1 8.90249 21.3777 1.84315 -0.258527 7.77654 4.8302 1 1
20 1 8.91429 1.78286 0 0 0 0 1 3
21 1 8.02286 0.891429 0.891429 0 0 0 1 2
22 1 8.04993 2.69278 2.74201 4.16295 0.824899 3.15058 1 1
23 1 9.81481 0.900527 2.70481 -0.256442 2.28062 9.47296 1 1
24 1 9.80572 2.67429 0.891429 0 0 0 1 2
25 1 10.6971 0 0 0 0 0 1 3
26 1 10.7072 1.80939 1.79604 5.96262 -1.74269 0.658231 1 1
27 1 12.5002 0.00179345 1.78166 -6.70467 -0.301206 -0.972347 1 1
28 1 12.48 1.78286 0 0 0 0 1 3
29 1 11.5886 0.891429 0.891429 0 0 0 1 2
30 1 11.6366 2.68893 2.68775 -4.23659 -3.64039 0.478703 1 1
31 1 13.342 0.898489 2.62547 -1.22729 -2.41748 -6.83367 1 1
32 1 13.3714 2.67429 0.891429 0 0 0 1 2
33 1 14.2629 0 0 0 0 0 1 3
34 1 14.2917 1.7888 1.7602 -1.19086 8.10254 0.466018 1 1
35 1 16.0675 21.3849 1.7666 -0.525255 3.56575 -0.809534 1 1
36 1 16.0457 1.78286 0 0 0 0 1 3
37 1 15.1543 0.891429 0.891429 0 0 0 1 2
38 1 15.1193 2.66715 2.66957 4.69354 5.26595 -1.97731 1 1
39 1 16.9593 0.911435 2.68977 -2.81632 2.15226 -1.44978 1 1
40 1 16.9371 2.67429 0.891429 0 0 0 1 2
41 1 17.8286 0 0 0 0 0 1 3
42 1 17.8513 1.79892 1.81713 0.0593909 -0.835388 -1.42019 1 1
43 1 19.6262 21.3828 1.80808 -7.21512 -0.0792223 -9.20739 1 1
44 1 19.6114 1.78286 0 0 0 0 1 3
45 1 18.72 0.891429 0.891429 0 0 0 1 2
46 1 18.7017 2.67207 2.66596 3.64455 3.37979 -0.7493 1 1
47 1 20.5218 0.888032 2.73341 5.02868 -12.3293 5.27676 1 1
48 1 20.5029 2.67429 0.891429 0 0 0 1 2
49 1 0 3.56572 0 0 0 0 1 3
50 1 21.3856 5.33932 1.81628 -3.54157 4.12373 -1.54919 1 1
51 1 1.74986 3.54194 1.80919 2.05133 -3.56331 3.12924 1 1
52 1 1.78286 5.34857 0 0 0 0 1 3
53 1 0.891429 4.45714 0.891429 0 0 0 1 2
54 1 0.895475 6.25305 2.68945 -1.82233 2.89606 0.531479 1 1
55 1 2.66031 4.43563 2.68515 2.79812 -5.5878 -10.0579 1 1
56 1 2.67429 6.24 0.891429 0 0 0 1 2
57 1 3.56572 3.56572 0 0 0 0 1 3
58 1 3.55054 5.35448 1.80601 -2.18962 5.87235 1.88594 1 1
59 1 5.36935 3.56736 1.77157 1.16853 2.06438 -5.62706 1 1
60 1 5.34857 5.34857 0 0 0 0 1 3
61 1 4.45714 4.45714 0.891429 0 0 0 1 2
62 1 4.4795 6.22573 2.69209 -1.29283 4.86303 2.65443 1 1
63 1 6.24498 4.41512 2.69945 4.37206 -2.57672 1.47049 1 1
64 1 6.24 6.24 0.891429 0 0 0 1 2
65 1 7.13143 3.56572 0 0 0 0 1 3
66 1 7.14813 5.32881 1.81623 -0.589055 3.39562 -2.28485 1 1
67 1 8.89607 3.54633 1.76108 4.32764 4.96565 -5.74297 1 1
68 1 8.91429 5.34857 0 0 0 0 1 3
69 1 8.02286 4.45714 0.891429 0 0 0 1 2
70 1 8.01275 6.22596 2.69537 1.60574 -4.19845 2.81531 1 1
71 1 9.80049 4.45636 2.70973 -2.32583 -0.778073 -1.31226 1 1
72 1 9.80572 6.24 0.891429 0 0 0 1 2
73 1 10.6971 3.56572 0 0 0 0 1 3
74 1 10.6769 5.38481 1.78188 -6.33369 1.15168 0.351206 1 1
75 1 12.5036 3.58977 1.79817 -4.39158 0.260538 3.30585 1 1
76 1 12.48 5.34857 0 0 0 0 1 3
77 1 11.5886 4.45714 0.891429 0 0 0 1 2
78 1 11.6063 6.24506 2.68155 8.95374 -5.61733 -8.92049 1 1
79 1 13.3493 4.50563 2.72488 0.222498 6.4861 -1.35991 1 1
80 1 13.3714 6.24 0.891429 0 0 0 1 2
81 1 14.2629 3.56572 0 0 0 0 1 3
82 1 14.2425 5.34112 1.81432 -3.53283 -0.681842 0.37458 1 1
83 1 16.0344 3.57804 1.78792 2.12502 0.259987 -3.95926 1 1
84 1 16.0457 5.34857 0 0 0 0 1 3
85 1 15.1543 4.45714 0.891429 0 0 0 1 2
86 1 15.104 6.25939 2.70152 -4.17107 -1.89062 8.46567 1 1
87 1 16.8848 4.46451 2.69417 -7.94961 7.48219 -5.40104 1 1
88 1 16.9371 6.24 0.891429 0 0 0 1 2
89 1 17.8286 3.56572 0 0 0 0 1 3
90 1 17.8326 5.30829 1.80514 1.4815 5.02059 5.46984 1 1
91 1 19.6145 3.58376 1.80743 1.60251 1.05277 6.25697 1 1
92 1 19.6114 5.34857 0 0 0 0 1 3
93 1 18.72 4.45714 0.891429 0 0 0 1 2
94 1 18.6663 6.22057 2.73142 0.141577 2.662 -0.339325 1 1
95 1 20.5055 4.48626 2.66506 -0.478131 0.953737 0.792141 1 1
96 1 20.5029 6.24 0.891429 0 0 0 1 2
97 1 0 7.13143 0 0 0 0 1 3
98 1 21.3572 8.94548 1.82663 -1.99393 -1.18891 -2.27418 1 1
99 1 1.78884 7.16075 1.78473 1.9993 2.97063 1.09911 1 1
100 1 1.78286 8.91429 0 0 0 0 1 3
101 1 0.891429 8.02286 0.891429 0 0 0 1 2
102 1 0.905578 9.8237 2.70962 0.17583 0.0723081 -4.54444 1 1
103 1 2.67926 8.0804 2.67462 -0.272444 -2.22817 10.5107 1 1
104 1 2.67429 9.80572 0.891429 0 0 0 1 2
105 1 3.56572 7.13143 0 0 0 0 1 3
106 1 3.57452 8.96959 1.7439 1.06546 1.85163 5.41497 1 1
107 1 5.34901 7.13957 1.75617 -8.14114 -2.40304 0.384302 1 1
108 1 5.34857 8.91429 0 0 0 0 1 3
109 1 4.45714 8.02286 0.891429 0 0 0 1 2
110 1 4.4439 9.81362 2.63571 5.81048 9.04713 8.90941 1 1
111 1 6.25055 7.98549 2.65334 -1.38972 4.05901 -13.1215 1 1
112 1 6.24 9.80572 0.891429 0 0 0 1 2
113 1 7.13143 7.13143 0 0 0 0 1 3
114 1 7.12381 8.94554 1.77543 -1.05742 5.04258 6.61137 1 1
115 1 8.91031 7.14117 1.79761 7.51872 0.327196 -1.95517 1 1
116 1 8.91429 8.91429 0 0 0 0 1 3
117 1 8.02286 8.02286 0.891429 0 0 0 1 2
118 1 7.99547 9.80325 2.66494 -9.22772 4.66469 6.96527 1 1
119 1 9.84001 8.04744 2.73713 9.06779 0.985425 3.19226 1 1
120 1 9.80572 9.80572 0.891429 0 0 0 1 2
121 1 10.6971 7.13143 0 0 0 0 1 3
122 1 10.7333 8.90734 1.80688 0.72954 4.21402 -3.83021 1 1
123 1 12.4585 7.16113 1.76081 1.84813 4.69803 2.59755 1 1
124 1 12.48 8.91429 0 0 0 0 1 3
125 1 11.5886 8.02286 0.891429 0 0 0 1 2
126 1 11.5909 9.80748 2.67156 -2.13998 8.36057 -7.60191 1 1
127 1 13.3322 8.03246 2.69024 0.199103 -2.11701 1.38798 1 1
128 1 13.3714 9.80572 0.891429 0 0 0 1 2
129 1 14.2629 7.13143 0 0 0 0 1 3
130 1 14.2444 8.92313 1.82656 4.0528 2.98516 -2.67084 1 1
131 1 16.0096 7.14598 1.81586 -1.56966 -1.24267 1.66874 1 1
132 1 16.0457 8.91429 0 0 0 0 1 3
133 1 15.1543 8.02286 0.891429 0 0 0 1 2
134 1 15.2142 9.78705 2.70222 0.868552 2.08714 -2.30887 1 1
135 1 16.902 7.98964 2.73692 5.22856 -7.68016 -7.10836 1 1
136 1 16.9371 9.80572 0.891429 0 0 0 1 2
137 1 17.8286 7.13143 0 0 0 0 1 3
138 1 17.8128 8.89153 1.80184 1.72021 2.91086 -3.86387 1 1
139 1 19.5851 7.11285 1.79444 7.66321 -3.14494 3.41081 1 1
140 1 19.6114 8.91429 0 0 0 0 1 3
141 1 18.72 8.02286 0.891429 0 0 0 1 2
142 1 18.7198 9.87639 2.69128 -9.44898 -1.83523 8.76131 1 1
143 1 20.5189 8.02336 2.69653 1.45246 -3.81787 6.28597 1 1
144 1 20.5029 9.80572 0.891429 0 0 0 1 2
145 1 0 10.6971 0 0 0 0 1 3
146 1 21.3825 12.4794 1.79141 4.35234 -7.60948 -11.36 1 1
147 1 1.79794 10.6728 1.78913 3.96514 -0.362893 3.60011 1 1
148 1 1.78286 12.48 0 0 0 0 1 3
149 1 0.891429 11.5886 0.891429 0 0 0 1 2
150 1 0.891565 13.3794 2.6941 -3.17818 -6.44748 -2.04376 1 1
151 1 2.70195 11.5854 2.71682 2.63629 -5.02395 0.240682 1 1
152 1 2.67429 13.3714 0.891429 0 0 0 1 2
153 1 3.56572 10.6971 0 0 0 0 1 3
154 1 3.61638 12.4628 1.80827 0.771939 2.41147 -9.46631 1 1
155 1 5.34941 10.722 1.7631 12.7222 1.20559 3.91477 1 1
156 1 5.34857 12.48 0 0 0 0 1 3
157 1 4.45714 11.5886 0.891429 0 0 0 1 2
158 1 4.48109 13.3504 2.67461 0.861589 -11.2288 -1.51505 1 1
159 1 6.23783 11.6013 2.74821 -4.31699 -2.24377 0.84198 1 1
160 1 6.24 13.3714 0.891429 0 0 0 1 2
161 1 7.13143 10.6971 0 0 0 0 1 3
162 1 7.17716 12.5049 1.80239 1.59111 7.77548 11.8549 1 1
163 1 8.89951 10.6962 1.76572 1.26705 1.99567 -1.39669 1 1
164 1 8.91429 12.48 0 0 0 0 1 3
165 1 8.02286 11.5886 0.891429 0 0 0 1 2
166 1 8.06601 13.3669 2.65401 1.24492 -0.671268 6.55446 1 1
167 1 9.80326 11.6061 2.682 1.47552 -2.83774 2.91663 1 1
168 1 9.80572 13.3714 0.891429 0 0 0 1 2
169 1 10.6971 10.6971 0 0 0 0 1 3
170 1 10.7447 12.4723 1.82402 -6.34372 0.580576 12.873 1 1
171 1 12.4955 10.689 1.78804 3.22978 -4.05312 2.36412 1 1
172 1 12.48 12.48 0 0 0 0 1 3
173 1 11.5886 11.5886 0.891429 0 0 0 1 2
174 1 11.5923 13.3466 2.71438 1.88865 1.6905 8.70832 1 1
175 1 13.3809 11.5967 2.68106 4.59827 6.77434 5.5379 1 1
176 1 13.3714 13.3714 0.891429 0 0 0 1 2
177 1 14.2629 10.6971 0 0 0 0 1 3
178 1 14.2426 12.4806 1.77736 2.47276 -6.72414 -2.34365 1 1
179 1 16.0504 10.6921 1.8101 -8.37889 -1.36045 0.360797 1 1
180 1 16.0457 12.48 0 0 0 0 1 3
181 1 15.1543 11.5886 0.891429 0 0 0 1 2
182 1 15.147 13.3503 2.6682 -1.33465 5.50059 7.18931 1 1
183 1 16.922 11.5871 2.66607 -0.746584 6.70164 0.311376 1 1
184 1 16.9371 13.3714 0.891429 0 0 0 1 2
185 1 17.8286 10.6971 0 0 0 0 1 3
186 1 17.8561 12.4813 1.8009 -5.49341 -0.631152 2.46177 1 1
187 1 19.5924 10.7072 1.78402 -0.910623 2.42295 -0.81937 1 1
188 1 19.6114 12.48 0 0 0 0 1 3
189 1 18.72 11.5886 0.891429 0 0 0 1 2
190 1 18.6929 13.4171 2.74276 4.00211 3.99077 0.721146 1 1
191 1 20.4958 11.5623 2.70281 -3.0185 -2.0838 -1.13816 1 1
192 1 20.5029 13.3714 0.891429 0 0 0 1 2
193 1 0 14.2629 0 0 0 0 1 3
194 1 0.0194001 16.0632 1.81277 3.85061 -6.30564 10.6374 1 1
195 1 1.74829 14.297 1.81119 1.68778 0.502293 -0.676288 1 1
196 1 1.78286 16.0457 0 0 0 0 1 3
197 1 0.891429 15.1543 0.891429 0 0 0 1 2
198 1 0.950818 16.9578 2.71545 -7.02126 -0.484047 7.63003 1 1
199 1 2.67503 15.1541 2.71749 -3.68126 -1.98703 1.43237 1 1
200 1 2.67429 16.9371 0.891429 0 0 0 1 2
201 1 3.56572 14.2629 0 0 0 0 1 3
202 1 3.51707 16.0216 1.77696 -7.37848 7.88989 -4.26004 1 1
203 1 5.32321 14.2743 1.75078 -8.96981 -3.88212 -0.210066 1 1
204 1 5.34857 16.0457 0 0 0 0 1 3
205 1 4.45714 15.1543 0.891429 0 0 0 1 2
206 1 4.42406 16.925 2.63866 -3.28199 -1.77503 -0.0154356 1 1
207 1 6.25787 15.1763 2.65959 -7.45746 8.31831 0.855488 1 1
208 1 6.24 16.9371 0.891429 0 0 0 1 2
209 1 7.13143 14.2629 0 0 0 0 1 3
210 1 7.13403 16.0359 1.79332 -1.13621 -3.4008 3.59002 1 1
211 1 8.95927 14.2581 1.77761 0.525062 3.5168 -1.85013 1 1
212 1 8.91429 16.0457 0 0 0 0 1 3
213 1 8.02286 15.1543 0.891429 0 0 0 1 2
214 1 8.03649 16.9041 2.65465 2.41059 0.355361 7.64324 1 1
215 1 9.85965 15.1489 2.68032 -0.318415 -1.04851 5.31565 1 1
216 1 9.80572 16.9371 0.891429 0 0 0 1 2
217 1 10.6971 14.2629 0 0 0 0 1 3
218 1 10.7077 16.0591 1.76076 5.57402 -4.01038 -7.17386 1 1
219 1 12.4692 14.2551 1.84355 0.896458 -0.927435 -1.85262 1 1
220 1 12.48 16.0457 0 0 0 0 1 3
221 1 11.5886 15.1543 0.891429 0 0 0 1 2
222 1 11.6003 16.9073 2.69425 -1.19264 -5.61211 0.328824 1 1
223 1 13.365 15.1995 2.70107 -0.844374 0.294805 -0.529298 1 1
224 1 13.3714 16.9371 0.891429 0 0 0 1 2
225 1 14.2629 14.2629 0 0 0 0 1 3
226 1 14.2719 16.0519 1.81349 0.235569 -4.52431 2.97243 1 1
227 1 16.0554 14.2991 1.79557 1.82439 4.6204 -6.09276 1 1
228 1 16.0457 16.0457 0 0 0 0 1 3
229 1 15.1543 15.1543 0.891429 0 0 0 1 2
230 1 15.1249 16.9887 2.66863 1.50314 4.63986 -4.20574 1 1
231 1 16.9291 15.1543 2.67174 1.69877 -5.68404 -0.083593 1 1
232 1 16.9371 16.9371 0.891429 0 0 0 1 2
233 1 17.8286 14.2629 0 0 0 0 1 3
234 1 17.8693 16.0215 1.77946 9.01383 -0.463999 3.07617 1 1
235 1 19.5972 14.2388 1.84329 -4.2746 -3.39279 -0.79634 1 1
236 1 19.6114 16.0457 0 0 0 0 1 3
237 1 18.72 15.1543 0.891429 0 0 0 1 2
238 1 18.7926 16.9126 2.68942 -2.06554 0.724528 9.53823 1 1
239 1 20.5107 15.1987 2.70468 3.39794 -2.79233 9.9621 1 1
240 1 20.5029 16.9371 0.891429 0 0 0 1 2
241 1 0 17.8286 0 0 0 0 1 3
242 1 0.00346042 19.6499 1.8144 -0.47153 -8.93041 7.43855 1 1
243 1 1.82318 17.8439 1.76928 -0.188386 6.15594 -8.35091 1 1
244 1 1.78286 19.6114 0 0 0 0 1 3
245 1 0.891429 18.72 0.891429 0 0 0 1 2
246 1 0.945356 20.5192 2.67855 -4.00553 -0.0592145 -1.2882 1 1
247 1 2.67798 18.7146 2.67261 1.1171 -1.15249 -0.540882 1 1
248 1 2.67429 20.5029 0.891429 0 0 0 1 2
249 1 3.56572 17.8286 0 0 0 0 1 3
250 1 3.5626 19.6205 1.81381 -2.49317 -1.64395 6.73021 1 1
251 1 5.3412 17.8033 1.77137 -3.68571 -7.2299 -2.74741 1 1
252 1 5.34857 19.6114 0 0 0 0 1 3
253 1 4.45714 18.72 0.891429 0 0 0 1 2
254 1 4.41757 20.5209 2.64632 15.7976 -2.07405 -2.24783 1 1
255 1 6.22624 18.7161 2.70307 -2.87715 5.98716 -1.87706 1 1
256 1 6.24 20.5029 0.891429 0 0 0 1 2
257 1 7.13143 17.8286 0 0 0 0 1 3
258 1 7.14019 19.6132 1.80473 -6.21296 3.24617 1.14266 1 1
259 1 8.94705 17.8144 1.7142 1.65535 -4.26084 0.13465 1 1
260 1 8.91429 19.6114 0 0 0 0 1 3
261 1 8.02286 18.72 0.891429 0 0 0 1 2
262 1 7.93429 20.5009 2.72326 4.31296 0.265738 -2.72716 1 1
263 1 9.78623 18.7144 2.65736 -2.98087 -5.73471 2.13247 1 1
264 1 9.80572 20.5029 0.891429 0 0 0 1 2
265 1 10.6971 17.8286 0 0 0 0 1 3
266 1 10.7143 19.587 1.78353 -7.86815 6.2029 -1.51049 1 1
267 1 12.5048 17.7758 1.79058 -7.66908 -7.9729 0.213927 1 1
268 1 12.48 19.6114 0 0 0 0 1 3
269 1 11.5886 18.72 0.891429 0 0 0 1 2
270 1 11.6145 20.4765 2.69164 2.53881 -3.96082 -10.1725 1 1
271 1 13.3858 18.6932 2.70443 5.08349 -2.25686 0.350957 1 1
272 1 13.3714 20.5029 0.891429 0 0 0 1 2
273 1 14.2629 17.8286 0 0 0 0 1 3
274 1 14.2765 19.6215 1.80772 -3.06807 0.260067 -2.11092 1 1
275 1 16.0287 17.8346 1.80518 -1.39765 4.63485 -2.90775 1 1
276 1 16.0457 19.6114 0 0 0 0 1 3
277 1 15.1543 18.72 0.891429 0 0 0 1 2
278 1 15.1669 20.4457 2.70541 1.41208 -2.3277 -0.657627 1 1
279 1 16.9385 18.7001 2.70707 0.379199 0.3005 -2.38611 1 1
280 1 16.9371 20.5029 0.891429 0 0 0 1 2
281 1 17.8286 17.8286 0 0 0 0 1 3
282 1 17.8423 19.6214 1.79008 0.612249 -2.33486 2.12003 1 1
283 1 19.6411 17.829 1.78985 3.25204 -10.5442 3.80518 1 1
284 1 19.6114 19.6114 0 0 0 0 1 3
285 1 18.72 18.72 0.891429 0 0 0 1 2
286 1 18.757 20.4957 2.70523 -1.4451 -5.27962 3.46163 1 1
287 1 20.5163 18.7348 2.67936 -2.10962 4.90719 3.08712 1 1
288 1 20.5029 20.5029 0.891429 0 0 0 1 2
289 1 0.00752487 0.0345306 3.62066 -2.52121 6.45326 -7.86458 1 1
290 1 0.00545077 1.77654 5.4363 0.208179 -0.569451 5.54481 1 1
291 1 1.80316 21.3953 5.42204 0.0363592 7.90192 2.86384 1 1
292 1 1.80416 1.81768 3.58491 -0.339302 -7.87948 4.80166 1 1
293 1 0.893008 0.902221 4.5238 2.04668 -10.6915 0.557059 1 1
294 1 0.880433 2.67942 6.27826 0.215562 4.85703 2.75502 1 1
295 1 2.64393 0.926906 6.31354 9.45122 0.706359 1.81407 1 1
296 1 2.68214 2.65287 4.50129 2.54648 3.0285 -5.84793 1 1
297 1 3.56061 0.0119348 3.57985 10.8768 -1.46222 11.572 1 1
298 1 3.57993 1.79028 5.39608 -2.11672 2.59934 0.143153 1 1
299 1 5.33324 0.0087617 5.34691 11.0509 6.81527 2.26509 1 1
300 1 5.36452 1.77888 3.60634 -3.88081 1.29625 -0.197094 1 1
301 1 4.41622 0.936622 4.53039 -3.77543 1.61775 -3.59351 1 1
302 1 4.48448 2.6493 6.32671 8.09093 8.71006 -1.83675 1 1
303 1 6.20439 0.884488 6.28528 -5.48058 1.40461 1.10704 1 1
304 1 6.23094 2.70868 4.53779 -2.04555 5.57996 -3.16985 1 1
305 1 7.09849 0.0279684 3.57544 -0.62569 0.935191 5.86995 1 1
306 1 7.13267 1.76468 5.4123 5.04018 1.54526 0.7036 1 1
307 1 8.86505 21.3615 5.40638 5.45362 -6.64777 -1.2736 1 1
308 1 8.93688 1.82614 3.6086 0.589719 0.53548 7.53617 1 1
309 1 8.04332 0.904855 4.5352 -0.217716 2.14547 6.28157 1 1
310 1 8.03166 2.67728 6.29792 -10.2297 3.40839 -0.634974 1 1
311 1 9.77389 0.88959 6.286 4.10613 2.51613 -2.2625 1 1
312 1 9.80597 2.69251 4.51576 3.93625 1.5542 6.30307 1 1
313 1 10.6857 21.3696 3.59852 5.07122 -2.90205 2.96181 1 1
314 1 10.706 1.74651 5.42087 5.00136 -1.40668 6.54663 1 1
315 1 12.4591 21.3906 5.40158 6.96253 4.61368 4.18617 1 1
316 1 12.4774 1.77624 3.57814 8.75741 1.81645 4.13331 1 1
317 1 11.5718 0.911656 4.49084 7.27429 -2.23231 7.20035 1 1
318 1 11.5743 2.6393 6.28786 -1.28628 -2.56807 -7.90604 1 1
319 1 13.4019 0.838096 6.27609 4.99428 -2.15657 -5.47896 1 1
320 1 13.3506 2.6548 4.49447 -3.3027 -0.0410588 3.39656 1 1
321 1 14.3041 21.3706 3.58607 -1.07719 1.02742 4.22511 1 1
322 1 14.2863 1.78195 5.34277 -8.11535 -0.0850783 0.452679 1 1
323 1 16.0561 0.0122183 5.36839 8.33542 1.12844 6.93804 1 1
324 1 16.0059 1.84046 3.59945 -5.71552 0.3006 1.8991 1 1
325 1 15.1586 0.895713 4.45653 -1.59098 -4.01444 1.16548 1 1
326 1 15.1366 2.66861 6.30005 3.64898 1.64776 -1.55721 1 1
327 1 16.9438 0.903971 6.30559 0.382811 6.91126 1.04209 1 1
328 1 16.9361 2.72566 4.4917 5.1291 0.50167 -1.23989 1 1
329 1 17.8218 0.0282447 3.6086 0.938517 -0.844171 7.95555 1 1
330 1 17.8048 1.79756 5.37842 -4.46033 15.5639 4.62725 1 1
331 1 19.5934 0.0212928 5.3572 -0.975854 -0.27117 7.67055 1 1
332 1 19.5995 1.80663 3.57612 -2.79322 1.66578 10.1273 1 1
333 1 18.6886 0.886719 4.47475 -2.89242 0.812502 -11.4703 1 1
334 1 18.7259 2.69058 6.30909 -4.03244 -2.88767 3.75895 1 1
335 1 20.4626 0.888643 6.32729 1.4713 2.7254 0.843923 1 1
336 1 20.5051 2.67709 4.52446 3.26952 1.99436 0.701446 1 1
337 1 0.0286896 3.55638 3.62104 -5.92892 1.35363 1.46648 1 1
338 1 0.018814 5.32558 5.38535 -1.84482 -2.62581 3.79357 1 1
339 1 1.8258 3.56009 5.40031 0.148545 0.740817 2.2287 1 1
340 1 1.80163 5.33813 3.602 4.23339 4.94475 2.85752 1 1
341 1 0.940621 4.47689 4.5008 -1.65409 5.20125 4.06537 1 1
342 1 0.915311 6.23228 6.3248 1.05877 7.08785 0.750462 1 1
343 1 2.69576 4.45533 6.29653 5.13301 1.52546 0.0600218 1 1
344 1 2.72228 6.238 4.50396 -6.0809 -8.67168 2.12718 1 1
345 1 3.56805 3.57138 3.52834 -5.49136 2.31609 -4.04433 1 1
346 1 3.58 5.34983 5.38565 -8.3576 -2.23408 -6.44672 1 1
347 1 5.3494 3.58016 5.41669 3.55842 -0.532967 -1.20983 1 1
348 1 5.39703 5.34276 3.59264 -0.892047 1.37801 1.44139 1 1
349 1 4.47093 4.45831 4.4513 -3.08672 -3.77089 -7.11126 1 1
350 1 4.52078 6.26703 6.26864 2.37397 -6.59766 -2.92198 1 1
351 1 6.24915 4.46246 6.26166 0.868158 -4.64356 4.53543 1 1
352 1 6.25957 6.25867 4.47744 6.10033 8.82593 -1.69867 1 1
353 1 7.16442 3.55983 3.62565 -0.509891 -2.22422 2.9449 1 1
354 1 7.17278 5.36529 5.41104 -9.98515 0.032854 5.02312 1 1
355 1 8.9196 3.59187 5.40354 -3.19269 -1.87147 2.42935 1 1
356 1 8.92633 5.34801 3.62482 5.1451 -2.45552 -5.48382 1 1
357 1 7.99229 4.46628 4.54539 4.73634 -3.59372 1.51693 1 1
358 1 8.02244 6.27175 6.29964 1.01217 0.0244613 -2.6805 1 1
359 1 9.79836 4.45321 6.30116 0.577075 2.43743 -5.60727 1 1
360 1 9.78997 6.25959 4.481 6.6087 -1.19327 6.3036 1 1
361 1 10.6937 3.57057 3.57913 -7.5831 5.17757 1.34812 1 1
362 1 10.7066 5.33429 5.41434 -1.53082 -2.76933 0.642302 1 1
363 1 12.487 3.5564 5.38064 2.75122 3.11755 -5.81151 1 1
364 1 12.481 5.41086 3.66367 2.49359 -13.6752 0.928463 1 1
365 1 11.6023 4.48658 4.48363 4.4703 5.11018 0.786191 1 1
366 1 11.5786 6.2702 6.2959 6.89476 3.09594 4.18685 1 1
367 1 13.3103 4.43289 6.3051 -6.05994 -3.05283 -1.39456 1 1
368 1 13.3613 6.22635 4.52467 -3.78048 2.13044 0.530969 1 1
369 1 14.2705 3.53323 3.59421 2.76831 2.69236 -0.542331 1 1
370 1 14.22 5.31576 5.41254 0.118877 -1.88481 3.42357 1 1
371 1 16.017 3.57596 5.37799 -8.85475 1.461 -5.25487 1 1
372 1 16.0472 5.32598 3.58722 2.60802 6.15927 1.73382 1 1
373 1 15.0734 4.44968 4.48658 0.141746 4.79215 -3.82524 1 1
374 1 15.1117 6.20888 6.24969 -8.54443 -5.19464 -10.566 1 1
375 1 16.897 4.48047 6.26559 -3.22763 -9.23816 -2.595 1 1
376 1 16.9131 6.23318 4.50786 0.117619 -2.80701 -1.22048 1 1
377 1 17.8306 3.56981 3.54655 -1.00227 1.72539 10.4196 1 1
378 1 17.8355 5.3056 5.40181 2.04053 0.458253 1.49085 1 1
379 1 19.6121 3.56875 5.42128 5.71394 12.6111 5.0188 1 1
380 1 19.5857 5.37206 3.61121 -3.95978 0.452525 0.24665 1 1
381 1 18.7148 4.42884 4.4594 -5.5438 -3.67798 7.93458 1 1
382 1 18.7279 6.23727 6.31545 -2.02493 4.52798 3.25213 1 1
383 1 20.4922 4.45446 6.25753 -3.66788 10.6622 -6.47021 1 1
384 1 20.5725 6.2901 4.53363 -8.36713 0.271307 1.18515 1 1
385 1 0.0305311 7.17123 3.60106 -0.139397 -2.40934 -6.61238 1 1
386 1 0.0369475 8.9129 5.37616 5.28233 1.04078 -4.78224 1 1
387 1 1.83626 7.16385 5.41438 3.10078 3.03563 7.51387 1 1
388 1 1.81243 8.94312 3.59814 -3.67243 1.59695 -3.50111 1 1
389 1 0.957206 8.05039 4.51093 1.32653 -3.735 2.15591 1 1
390 1 0.904584 9.82013 6.25893 5.15283 5.39696 2.66389 1 1
391 1 2.70195 8.0482 6.28713 -3.43774 4.8277 -2.24928 1 1
392 1 2.74611 9.79914 4.4868 10.0115 4.38893 -0.466978 1 1
393 1 3.62981 7.16067 3.57255 -4.4319 -5.97311 -6.6221 1 1
394 1 3.61207 8.90382 5.36425 8.60295 -4.91666 0.338841 1 1
395 1 5.42477 7.12603 5.39159 1.05319 -1.37896 2.16884 1 1
396 1 5.39009 8.90872 3.54983 -0.669165 5.07312 2.57779 1 1
397 1 4.50788 8.05842 4.51462 6.47006 5.2847 4.79789 1 1
398 1 4.49677 9.82265 6.27795 -4.44004 2.39328 -3.81902 1 1
399 1 6.26933 8.00842 6.30262 -2.91356 0.0327325 1.01639 1 1
400 1 6.26596 9.85834 4.47358 -6.88666 0.322477 1.84901 1 1
401 1 7.12191 7.15428 3.56737 -5.59506 3.40772 3.08047 1 1
402 1 7.12317 8.95032 5.39757 8.6454 4.86143 2.40432 1 1
403 1 8.9198 7.13693 5.38475 2.81747 3.76327 10.2404 1 1
404 1 8.91236 8.92187 3.61798 -1.55773 -1.43691 -1.75563 1 1
405 1 7.99422 8.01658 4.47278 -2.64276 0.157991 -0.849075 1 1
406 1 8.00898 9.81755 6.32324 -2.92479 -6.40705 -2.67245 1 1
407 1 9.7946 8.01671 6.24731 -0.916485 7.60585 4.87021 1 1
408 1 9.79029 9.79808 4.52382 -3.29382 0.950539 -0.0429823 1 1
409 1 10.7297 7.13718 3.60339 -0.182693 -1.63095 -0.822463 1 1
410 1 10.681 8.92671 5.39589 0.55049 5.57562 0.097234 1 1
411 1 12.4476 7.12409 5.41909 7.00467 2.81052 4.34418 1 1
412 1 12.4757 8.90878 3.62129 2.50414 -3.43211 6.43781 1 1
413 1 11.6174 8.0431 4.51929 1.03372 -0.635668 8.29425 1 1
414 1 11.5935 9.81859 6.28554 -0.626902 2.27045 5.12533 1 1
415 1 13.3421 8.04903 6.29815 -1.26572 2.25598 -1.27587 1 1
416 1 13.3987 9.85187 4.48969 5.46471 4.95722 3.53312 1 1
417 1 14.2521 7.12146 3.59927 -7.39548 4.8546 -1.66541 1 1
418 1 14.2496 8.89089 5.43696 0.253998 2.82257 -2.25685 1 1
419 1 16.0515 7.07925 5.36238 -0.365866 1.70613 -1.40593 1 1
420 1 16.08 8.88412 3.61126 -3.89489 3.38822 -1.62009 1 1
421 1 15.1266 7.99147 4.50943 0.764397 0.728106 3.40759 1 1
422 1 15.1504 9.78488 6.30846 6.14265 -7.54865 1.02542 1 1
423 1 16.9255 7.99096 6.25296 -3.27265 2.81964 1.24056 1 1
424 1 16.9253 9.81144 4.45849 -5.95388 1.56986 0.449961 1 1
425 1 17.7777 7.16255 3.63777 -6.94632 11.7066 6.61889 1 1
426 1 17.8422 8.89912 5.35101 0.91855 -9.79396 6.10484 1 1
427 1 19.6379 7.07474 5.39247 -5.84735 -6.56036 -0.42066 1 1
428 1 19.6432 8.88134 3.62714 3.6738 1.17667 0.259706 1 1
429 1 18.7532 7.98866 4.47155 3.4823 4.81924 -1.786 1 1
430 1 18.7102 9.78195 6.2444 2.00575 0.316989 3.01387 1 1
431 1 20.5294 8.03318 6.26307 4.97421 0.381839 0.982346 1 1
432 1 20.5 9.8094 4.48626 3.46225 -7.04211 4.01178 1 1
433 1 21.3768 10.6725 3.59638 -1.94389 -1.95681 5.49036 1 1
434 1 21.3777 12.5021 5.37597 4.91976 -2.90911 5.15469 1 1
435 1 1.77711 10.6549 5.34418 -6.25248 0.265366 7.77496 1 1
436 1 1.78461 12.4355 3.55953 6.76265 1.28053 -1.62132 1 1
437 1 0.881433 11.5641 4.43549 -0.702257 1.90364 2.09794 1 1
438 1 0.889156 13.3646 6.27812 3.13686 -5.81005 2.70191 1 1
439 1 2.68094 11.5783 6.258 5.76408 0.0238915 8.19008 1 1
440 1 2.71735 13.3449 4.49575 -8.70447 10.2362 5.35812 1 1
441 1 3.59039 10.684 3.59209 4.72928 -3.82726 -3.31817 1 1
442 1 3.58417 12.438 5.38618 -3.88761 2.53875 2.84462 1 1
443 1 5.40656 10.7242 5.33641 1.6278 2.18262 3.71859 1 1
444 1 5.35771 12.5217 3.57772 3.30796 6.62759 7.30573 1 1
445 1 4.51571 11.5706 4.48896 -4.41932 3.8111 -0.487283 1 1
446 1 4.51611 13.4 6.30275 2.82518 -5.94943 2.33458 1 1
447 1 6.21585 11.6354 6.22276 -0.216588 -0.729269 3.91889 1 1
448 1 6.2464 13.4024 4.46626 3.77054 7.82452 -3.88807 1 1
449 1 7.15935 10.7485 3.57465 5.34061 -6.69363 -2.05768 1 1
450 1 7.15444 12.4743 5.38035 0.756356 -5.66246 -4.04892 1 1
451 1 8.93033 10.7122 5.42553 -1.89632 5.28373 5.9292 1 1
452 1 8.92388 12.4833 3.60814 2.17312 6.72144 5.69076 1 1
453 1 8.03557 11.5953 4.47742 6.65739 5.46155 2.60498 1 1
454 1 8.02278 13.373 6.25608 3.13911 -3.55357 3.50955 1 1
455 1 9.82675 11.5793 6.29476 1.05664 1.78723 -4.03476 1 1
456 1 9.81366 13.3638 4.5015 -8.41659 2.63993 1.02947 1 1
457 1 10.6907 10.6686 3.61674 0.294795 -6.06863 -5.32221 1 1
458 1 10.731 12.4958 5.39043 2.26143 4.18961 4.49121 1 1
459 1 12.45 10.7308 5.35874 4.63765 2.44641 -6.38303 1 1
460 1 12.4976 12.5095 3.59592 3.25259 7.83947 4.17987 1 1
461 1 11.5929 11.6008 4.47306 -1.94817 -3.66368 3.70477 1 1
462 1 11.6262 13.3663 6.28167 1.35341 -4.65586 2.05585 1 1
463 1 13.4037 11.5383 6.26442 2.26684 -1.02803 -0.299214 1 1
464 1 13.4164 13.3729 4.47818 -3.30407 3.1015 -7.77558 1 1
465 1 14.3226 10.7154 3.61248 -1.76806 4.89492 8.04879 1 1
466 1 14.3029 12.4464 5.3781 -2.22389 4.65784 -6.225 1 1
467 1 16.0484 10.7123 5.41219 0.410331 -2.7914 -0.76949 1 1
468 1 16.029 12.4557 3.57508 -5.66927 -4.98806 5.88285 1 1
469 1 15.1849 11.5771 4.49258 -5.39274 3.19522 3.4289 1 1
470 1 15.2146 13.3716 6.27589 -11.0037 2.79737 -2.0099 1 1
471 1 16.9388 11.6123 6.32999 -2.46987 2.44501 -5.17702 1 1
472 1 16.9549 13.4125 4.46041 8.6033 4.2123 -4.2794 1 1
473 1 17.8358 10.7303 3.6237 -0.174473 0.473424 -0.500715 1 1
474 1 17.8164 12.5034 5.3915 -7.60314 -4.66555 0.970943 1 1
475 1 19.5898 10.6688 5.38915 4.36978 -7.56751 5.8722 1 1
476 1 19.6241 12.5066 3.64746 4.30028 -2.28371 0.998498 1 1
477 1 18.7271 11.5852 4.49496 3.91206 -3.38459 -1.01742 1 1
478 1 18.7108 13.4035 6.30244 -7.71342 3.56258 -9.57898 1 1
479 1 20.491 11.5857 6.27225 2.13096 5.43464 4.75007 1 1
480 1 20.5301 13.4023 4.50494 7.9236 4.114 -0.102787 1 1
481 1 0.013503 14.2753 3.62112 -0.870631 1.76711 2.89326 1 1
482 1 21.3871 16.0902 5.44866 0.147973 4.78559 -4.2965 1 1
483 1 1.79936 14.268 5.40975 1.91528 4.97026 -3.48984 1 1
484 1 1.77767 16.0834 3.58524 -0.162905 -6.76506 6.9325 1 1
485 1 0.927222 15.2001 4.50067 4.45996 11.2933 -5.45544 1 1
486 1 0.901811 16.93 6.31894 0.264738 -9.56174 -0.353905 1 1
487 1 2.71198 15.1317 6.29775 -8.02068 -4.62196 -4.88005 1 1
488 1 2.7133 16.9412 4.4845 8.67744 0.514803 -1.24681 1 1
489 1 3.57913 14.2859 3.6171 3.11897 -6.1558 3.77535 1 1
490 1 3.59153 16.0515 5.37099 -4.04621 -0.547789 6.98421 1 1
491 1 5.3674 14.3037 5.3417 1.90242 2.22008 -0.923282 1 1
492 1 5.33752 16.1031 3.58413 4.06933 2.34674 7.44555 1 1
493 1 4.45358 15.2012 4.45069 7.86565 0.364608 0.992731 1 1
494 1 4.52735 16.9463 6.29575 1.28982 9.66116 -0.0864929 1 1
495 1 6.30814 15.2044 6.28392 3.41489 4.03468 3.62249 1 1
496 1 6.25175 16.9659 4.44025 -6.10271 -1.48318 3.03597 1 1
497 1 7.12676 14.2582 3.52714 -0.800799 -1.00005 3.2669 1 1
498 1 7.15715 16.0713 5.3371 -0.514985 1.92646 -2.13453 1 1
499 1 8.87602 14.24 5.3432 -1.29382 4.95909 1.80325 1 1
500 1 8.92018 16.0624 3.50325 0.316819 -0.913972 -1.09945 1 1
501 1 8.03218 15.1703 4.45777 -5.9087 -4.04723 -2.68031 1 1
502 1 8.0041 16.9583 6.26304 -0.393925 9.88212 0.297351 1 1
503 1 9.80746 15.1195 6.24036 2.19208 3.98719 -2.22258 1 1
504 1 9.765 16.8953 4.46675 1.4884 -0.981453 -4.32431 1 1
505 1 10.6775 14.2222 3.59704 -4.26212 -0.371095 4.52596 1 1
506 1 10.6306 16.0281 5.33015 4.26373 -3.24872 2.13221 1 1
507 1 12.5195 14.2609 5.36691 5.44405 1.89631 -1.35136 1 1
508 1 12.4818 16.0685 3.59577 -3.91873 2.00857 10.9809 1 1
509 1 11.6305 15.1566 4.45428 0.922895 0.949707 -1.82189 1 1
510 1 11.5481 16.9299 6.21268 1.37449 -0.531631 -2.67618 1 1
511 1 13.41 15.1451 6.28685 8.4858 5.80235 -1.67193 1 1
512 1 13.3649 16.9719 4.49951 -1.40594 -1.57357 0.453343 1 1
513 1 14.2788 14.2356 3.56245 5.32018 4.36436 16.3268 1 1
514 1 14.3339 16.061 5.37505 2.02421 -1.67081 -1.19838 1 1
515 1 16.0545 14.3048 5.38971 8.15223 -0.907839 -4.67166 1 1
516 1 16.0786 16.0843 3.55203 3.18333 -2.00415 6.03774 1 1
517 1 15.1951 15.1587 4.43187 -5.16129 4.6118 -0.218952 1 1
518 1 15.161 16.956 6.27817 -0.332417 5.68094 4.60642 1 1
519 1 16.9367 15.2181 6.30519 8.3047 -0.12983 -4.17802 1 1
520 1 16.92 16.9661 4.49468 -2.28574 -7.57646 -3.52889 1 1
521 1 17.7933 14.3287 3.6189 1.44759 -2.0186 -3.06706 1 1
522 1 17.8062 16.0557 5.40459 2.55415 9.26396 -2.35853 1 1
523 1 19.5947 14.2454 5.37753 3.33997 4.63585 -2.68109 1 1
524 1 19.6533 16.0623 3.61644 -10.2859 -2.15464 4.253 1 1
525 1 18.7289 15.1693 4.52959 -0.805512 5.11658 -1.69758 1 1
526 1 18.7027 16.9261 6.29721 1.93995 0.958458 5.16432 1 1
527 1 20.4845 15.1073 6.27982 2.57602 -3.1126 -8.69675 1 1
528 1 20.5595 16.9584 4.53017 -2.83715 -7.92846 2.88476 1 1
529 1 0.0195539 17.8479 3.57118 -1.55786 4.12931 0.166502 1 1
530 1 0.0492705 19.646 5.38209 -1.48768 -1.44391 11.7706 1 1
531 1 1.76906 17.8044 5.36858 0.01402 3.05601 -3.17308 1 1
532 1 1.79737 19.6534 3.59086 -1.83707 -4.77584 -2.61793 1 1
533 1 0.938127 18.7319 4.47863 5.85253 -3.3789 7.25286 1 1
534 1 0.958993 20.5156 6.30363 8.82645 -0.643193 -4.91307 1 1
535 1 2.66112 18.6949 6.23688 -1.02497 2.44117 -3.03089 1 1
536 1 2.65568 20.5141 4.50196 -2.15742 -9.45228 -1.8059 1 1
537 1 3.57802 17.8366 3.55234 4.9559 -0.986433 0.176768 1 1
538 1 3.56134 19.6062 5.38087 3.10384 -8.45123 -4.85559 1 1
539 1 5.36162 17.8881 5.36929 -5.5253 7.19395 0.580976 1 1
540 1 5.32551 19.6545 3.54984 -1.33233 2.11219 -1.64127 1 1
541 1 4.4504 18.7695 4.4429 2.83849 0.378499 -0.156309 1 1
542 1 4.45084 20.5032 6.28589 3.26483 2.06259 -7.43974 1 1
543 1 6.20283 18.7395 6.27722 1.94178 3.63261 -4.08826 1 1
544 1 6.19746 20.4842 4.43872 -11.7287 2.69599 -2.20657 1 1
545 1 7.15037 17.8242 3.57778 -7.68649 4.81789 -0.605979 1 1
546 1 7.0617 19.6016 5.37129 0.00978939 -8.64385 8.64545 1 1
547 1 8.88946 17.8205 5.37651 -3.19287 -0.302464 -2.67315 1 1
548 1 8.85869 19.6151 3.60758 -0.828793 -6.54572 -7.62613 1 1
549 1 7.99112 18.7238 4.49547 1.50322 -0.394264 -7.19521 1 1
550 1 7.93688 20.4923 6.27441 -0.00329876 4.42183 -5.47739 1 1
551 1 9.78611 18.7389 6.2364 2.0817 -7.24478 -3.37025 1 1
552 1 9.75738 20.499 4.49774 -3.78342 -1.65043 -3.20139 1 1
553 1 10.6971 17.828 3.53899 -4.07776 -4.15307 0.635488 1 1
554 1 10.6939 19.6296 5.3797 -0.737305 2.00287 5.75686 1 1
555 1 12.4672 17.8319 5.37137 -3.09962 -3.9777 -7.30312 1 1
556 1 12.4436 19.588 3.57051 -6.83394 5.20722 -4.71485 1 1
557 1 11.5841 18.7159 4.45863 3.58726 -3.7944 0.684744 1 1