ITEM: TIMESTEP
2000
ITEM: NUMBER OF ATOMS
2952
ITEM: BOX BOUNDS pp pp mm
0.0000000000000000e+00 2.1394294200000001e+01
0.0000000000000000e+00 2.1394294200000001e+01
-4.4571446250000002e-01 5.3485735500000004e+01
ITEM: ATOMS id type x y z vx vy vz v_is_diamond c_structure_type
1 1 0 0 0 0 0 0 1 3
2 1 1.78286 1.78286 0 0 0 0 1 3
3 1 0.891429 0.891429 0.891429 0 0 0 1 2
4 1 0.891527 2.65301 2.65858 9.25394 -0.626547 4.92117 1 1
5 1 2.72224 0.874232 2.65351 -5.23789 5.18398 -1.48337 1 1
6 1 2.67429 2.67429 0.891429 0 0 0 1 2
7 1 21.3657 1.79069 1.78193 2.85569 6.60807 0.876855 1 1
8 1 1.78705 -0.00167637 1.79719 -0.32546 -8.98652 7.44515 1 1
9 1 1.7618 3.59544 1.76444 1.34583 4.34475 15.6505 1 1
10 1 3.56138 1.80552 1.79374 3.52777 -11.752 0.0364022 1 1
11 1 3.56572 0 0 0 0 0 1 3
12 1 5.34857 1.78286 0 0 0 0 1 3
13 1 4.45714 0.891429 0.891429 0 0 0 1 2
14 1 4.46991 2.67672 2.69625 -1.84443 -4.87223 1.53586 1 1
15 1 6.26541 0.852173 2.65362 5.55723 -3.03889 -8.78143 1 1
16 1 6.24 2.67429 0.891429 0 0 0 1 2
17 1 7.16086 1.74812 1.78472 3.69243 3.81557 5.38532 1 1
18 1 7.13143 0 0 0 0 0 1 3
19 1 8.02286 0.891429 0.891429 0 0 0 1 2
20 1 8.02442 2.68403 2.71341 -0.174001 4.82242 0.771526 1 1
21 1 8.91429 1.78286 0 0 0 0 1 3
22 1 9.77506 0.903045 2.71661 1.70331 2.38286 -1.03118 1 1
23 1 9.80572 2.67429 0.891429 0 0 0 1 2
24 1 8.88906 0.0449152 1.78018 6.39359 -7.58335 -2.61171 1 1
25 1 10.6606 1.80216 1.81737 2.8137 7.03852 0.547461 1 1
26 1 10.6971 0 0 0 0 0 1 3
27 1 12.48 1.78286 0 0 0 0 1 3
28 1 11.5886 0.891429 0.891429 0 0 0 1 2
29 1 11.5716 2.66825 2.65255 -8.5992 0.000470042 -5.16736 1 1
30 1 13.3411 0.888409 2.68364 -10.0537 -1.90635 -0.494108 1 1
31 1 13.3714 2.67429 0.891429 0 0 0 1 2
32 1 14.2621 1.79436 1.79698 3.50905 -0.285572 1.71048 1 1
33 1 14.2629 0 0 0 0 0 1 3
34 1 16.0457 1.78286 0 0 0 0 1 3
35 1 15.1543 0.891429 0.891429 0 0 0 1 2
36 1 15.1448 2.65426 2.67567 3.95297 -0.936116 2.91486 1 1
37 1 16.9698 0.906182 2.67426 -3.19391 2.58592 -1.77303 1 1
38 1 16.9371 2.67429 0.891429 0 0 0 1 2
39 1 16.0194 0.0244381 1.7797 -1.24145 -17.0718 -6.32599 1 1
40 1 17.8671 1.80279 1.78146 5.68079 -13.1809 3.13412 1 1
41 1 17.8286 0 0 0 0 0 1 3
42 1 19.6114 1.78286 0 0 0 0 1 3
43 1 18.72 0.891429 0.891429 0 0 0 1 2
44 1 18.7541 2.68604 2.69235 0.651913 -0.0788041 1.29678 1 1
45 1 20.5017 0.861448 2.67339 -1.99291 -3.95681 1.93596 1 1
46 1 20.5029 2.67429 0.891429 0 0 0 1 2
47 1 0 3.56572 0 0 0 0 1 3
48 1 1.78286 5.34857 0 0 0 0 1 3
49 1 0.891429 4.45714 0.891429 0 0 0 1 2
50 1 0.88305 6.21624 2.61504 7.1626 -5.72467 1.12582 1 1
51 1 2.65761 4.46815 2.64074 -5.53694 -1.6943 13.6156 1 1
52 1 2.67429 6.24 0.891429 0 0 0 1 2
53 1 3.55694 5.36506 1.78108 4.17508 0.34445 -10.2493 1 1
54 1 5.37246 3.54522 1.80782 5.43183 -8.81492 -0.813992 1 1
55 1 3.56572 3.56572 0 0 0 0 1 3
56 1 5.34857 5.34857 0 0 0 0 1 3
57 1 4.45714 4.45714 0.891429 0 0 0 1 2
58 1 4.45547 6.24132 2.68088 2.0729 1.90286 3.29545 1 1
59 1 6.2443 4.46795 2.65288 -0.651581 1.05106 0.366653 1 1
60 1 6.24 6.24 0.891429 0 0 0 1 2
61 1 5.31069 7.12288 1.77939 1.57755 1.61162 1.16169 1 1
62 1 7.14479 5.33567 1.805 1.55431 0.831714 -3.87725 1 1
63 1 7.13143 3.56572 0 0 0 0 1 3
64 1 8.92428 3.58068 1.80613 -6.86057 0.603297 0.44436 1 1
65 1 8.02286 4.45714 0.891429 0 0 0 1 2
66 1 8.04198 6.25234 2.71259 1.10045 -7.73429 -2.88994 1 1
67 1 8.91429 5.34857 0 0 0 0 1 3
68 1 9.80077 4.46167 2.6851 3.97746 2.65322 -2.78898 1 1
69 1 9.80572 6.24 0.891429 0 0 0 1 2
70 1 10.6871 5.33669 1.79318 -1.59266 6.37821 5.43393 1 1
71 1 12.4667 3.53194 1.75222 -1.62959 -2.9604 1.70985 1 1
72 1 10.6971 3.56572 0 0 0 0 1 3
73 1 12.48 5.34857 0 0 0 0 1 3
74 1 11.5886 4.45714 0.891429 0 0 0 1 2
75 1 11.5742 6.21318 2.72001 -4.98442 -1.35692 -9.88995 1 1
76 1 13.3923 4.41378 2.67786 -1.7247 6.10777 4.44867 1 1
77 1 13.3714 6.24 0.891429 0 0 0 1 2
78 1 14.2643 5.31996 1.83904 3.22473 -4.45531 0.0266842 1 1
79 1 16.0258 3.53657 1.80176 -8.23278 -6.69401 3.5998 1 1
80 1 14.2629 3.56572 0 0 0 0 1 3
81 1 16.0457 5.34857 0 0 0 0 1 3
82 1 15.1543 4.45714 0.891429 0 0 0 1 2
83 1 15.1285 6.18695 2.7273 0.311255 -0.619377 -3.02498 1 1
84 1 16.9684 4.41053 2.70252 -2.61394 -8.30841 -2.7004 1 1
85 1 16.9371 6.24 0.891429 0 0 0 1 2
86 1 17.8249 5.39208 1.79486 10.2795 -2.05141 1.4275 1 1
87 1 19.6785 3.55427 1.80797 1.53358 4.90565 -5.52992 1 1
88 1 21.3922 5.31915 1.79816 2.56653 1.69011 -3.95464 1 1
89 1 17.8286 3.56572 0 0 0 0 1 3
90 1 19.6114 5.34857 0 0 0 0 1 3
91 1 18.72 4.45714 0.891429 0 0 0 1 2
92 1 18.7068 6.23165 2.71876 -0.861578 -4.00846 1.11905 1 1
93 1 20.4969 4.44817 2.6741 0.790855 -3.43939 -2.12103 1 1
94 1 20.5029 6.24 0.891429 0 0 0 1 2
95 1 19.5673 7.14895 1.78682 -1.45864 -2.48213 0.900368 1 1
96 1 1.76505 7.14719 1.75479 3.98725 9.05226 3.75353 1 1
97 1 0 7.13143 0 0 0 0 1 3
98 1 0.891429 8.02286 0.891429 0 0 0 1 2
99 1 2.63235 8.03947 2.64842 1.10489 8.13447 0.373611 1 1
100 1 1.78286 8.91429 0 0 0 0 1 3
101 1 0.86991 9.78944 2.69765 2.52807 -6.50404 1.51259 1 1
102 1 2.67429 9.80572 0.891429 0 0 0 1 2
103 1 1.77414 10.6801 1.77359 4.23169 2.42738 1.35182 1 1
104 1 3.51334 8.92955 1.80662 -4.62097 1.1631 8.51478 1 1
105 1 3.56572 7.13143 0 0 0 0 1 3
106 1 4.45714 8.02286 0.891429 0 0 0 1 2
107 1 6.21548 8.02137 2.67817 -0.177926 6.56255 2.62641 1 1
108 1 5.34857 8.91429 0 0 0 0 1 3
109 1 4.46861 9.82195 2.70643 1.46768 -0.291222 0.688536 1 1
110 1 6.24 9.80572 0.891429 0 0 0 1 2
111 1 7.12037 8.90729 1.76862 1.64742 2.26017 -9.08297 1 1
112 1 8.91484 7.10802 1.79749 -10.4949 7.52432 -4.73663 1 1
113 1 7.13143 7.13143 0 0 0 0 1 3
114 1 8.02286 8.02286 0.891429 0 0 0 1 2
115 1 9.82834 7.99971 2.68864 7.83782 -4.30382 1.57677 1 1
116 1 8.05606 9.77896 2.67856 -4.35419 4.47102 3.63368 1 1
117 1 8.91429 8.91429 0 0 0 0 1 3
118 1 9.80572 9.80572 0.891429 0 0 0 1 2
119 1 10.7159 8.92388 1.79821 0.911706 -7.96096 -0.317968 1 1
120 1 12.4688 7.12146 1.78588 -2.84156 3.00339 -6.80786 1 1
121 1 10.6971 7.13143 0 0 0 0 1 3
122 1 11.5886 8.02286 0.891429 0 0 0 1 2
123 1 13.3597 7.97759 2.69959 1.56047 15.2276 -0.789723 1 1
124 1 12.48 8.91429 0 0 0 0 1 3
125 1 11.602 9.80373 2.71446 -0.873842 1.09028 2.88115 1 1
126 1 13.3714 9.80572 0.891429 0 0 0 1 2
127 1 12.479 10.7031 1.77266 1.99368 -4.06448 -4.86128 1 1
128 1 16.0269 7.10298 1.7962 0.516181 -2.05167 -1.9356 1 1
129 1 14.2307 8.90288 1.79291 -3.84594 2.40324 -3.40262 1 1
130 1 14.2629 7.13143 0 0 0 0 1 3
131 1 15.1543 8.02286 0.891429 0 0 0 1 2
132 1 16.91 8.00376 2.72591 5.48018 5.08818 -5.41343 1 1
133 1 16.0457 8.91429 0 0 0 0 1 3
134 1 15.1374 9.81358 2.68504 3.34095 0.891311 1.35225 1 1
135 1 16.9371 9.80572 0.891429 0 0 0 1 2
136 1 16.0668 10.7255 1.77615 1.28323 -0.802393 0.621184 1 1
137 1 17.8495 8.90804 1.79696 -4.46854 -0.428877 0.461897 1 1
138 1 -0.00681567 8.89836 1.80922 -3.33693 -2.32738 5.57597 1 1
139 1 17.8286 7.13143 0 0 0 0 1 3
140 1 18.72 8.02286 0.891429 0 0 0 1 2
141 1 20.467 7.96967 2.70509 -8.79679 2.04821 -4.24116 1 1
142 1 19.6114 8.91429 0 0 0 0 1 3
143 1 18.7038 9.77906 2.70706 -1.65177 -2.84725 0.862899 1 1
144 1 20.5029 9.80572 0.891429 0 0 0 1 2
145 1 0 10.6971 0 0 0 0 1 3
146 1 1.78286 12.48 0 0 0 0 1 3
147 1 0.891429 11.5886 0.891429 0 0 0 1 2
148 1 2.67316 11.579 2.65418 -1.93339 2.35791 1.59613 1 1
149 1 0.862456 13.3676 2.69044 -0.133001 -2.58204 14.5046 1 1
150 1 2.67429 13.3714 0.891429 0 0 0 1 2
151 1 21.3788 12.4622 1.82648 0.753322 -2.66712 4.67081 1 1
152 1 5.32388 10.6612 1.79944 1.24174 3.57129 -7.45877 1 1
153 1 3.56129 12.4651 1.81318 -0.947715 -3.01255 8.2822 1 1
154 1 3.56572 10.6971 0 0 0 0 1 3
155 1 5.34857 12.48 0 0 0 0 1 3
156 1 4.45714 11.5886 0.891429 0 0 0 1 2
157 1 6.17628 11.5922 2.69229 -0.918738 -4.55335 -2.5332 1 1
158 1 4.45365 13.3973 2.69875 1.99421 -3.94905 -4.57844 1 1
159 1 6.24 13.3714 0.891429 0 0 0 1 2
160 1 5.37988 14.2566 1.81493 3.41303 -4.93954 -3.96139 1 1
161 1 8.93298 10.6666 1.83784 -5.31679 0.94861 -3.79309 1 1
162 1 7.13633 12.4419 1.80965 4.98405 -0.325685 -7.1345 1 1
163 1 7.13143 10.6971 0 0 0 0 1 3
164 1 8.02286 11.5886 0.891429 0 0 0 1 2
165 1 8.91429 12.48 0 0 0 0 1 3
166 1 9.76898 11.6172 2.69509 3.48011 1.03982 2.89309 1 1
167 1 8.04597 13.4058 2.6604 0.832336 6.87799 -1.05051 1 1
168 1 9.80572 13.3714 0.891429 0 0 0 1 2
169 1 10.6828 12.4728 1.79247 -4.75416 2.4679 7.1159 1 1
170 1 10.6971 10.6971 0 0 0 0 1 3
171 1 12.48 12.48 0 0 0 0 1 3
172 1 11.5886 11.5886 0.891429 0 0 0 1 2
173 1 13.3965 11.579 2.66443 11.189 -2.13614 0.408507 1 1
174 1 11.5893 13.3842 2.6779 8.93646 0.505639 5.48738 1 1
175 1 13.3714 13.3714 0.891429 0 0 0 1 2
176 1 12.4815 14.3151 1.79719 -10.7884 9.42069 4.43336 1 1
177 1 14.2398 12.4837 1.75118 -0.552546 -4.08072 -5.20067 1 1
178 1 14.2629 10.6971 0 0 0 0 1 3
179 1 16.0457 12.48 0 0 0 0 1 3
180 1 15.1543 11.5886 0.891429 0 0 0 1 2
181 1 16.9448 11.595 2.69186 -6.08605 -1.52902 1.03389 1 1
182 1 15.1427 13.3642 2.65148 -7.38721 -9.176 -0.441397 1 1
183 1 16.9371 13.3714 0.891429 0 0 0 1 2
184 1 17.8605 12.4649 1.77333 -0.492214 -0.0052604 -4.69723 1 1
185 1 19.6537 10.6642 1.77847 7.25835 4.21182 -3.55664 1 1
186 1 17.8286 10.6971 0 0 0 0 1 3
187 1 19.6114 12.48 0 0 0 0 1 3
188 1 18.72 11.5886 0.891429 0 0 0 1 2
189 1 20.4946 11.5774 2.68911 -0.941363 -6.5102 6.50933 1 1
190 1 18.7145 13.2862 2.64119 4.32022 6.19062 10.7289 1 1
191 1 20.5029 13.3714 0.891429 0 0 0 1 2
192 1 19.5976 14.2337 1.79734 -7.65686 -4.23446 1.4856 1 1
193 1 1.80234 14.2614 1.80924 -0.678352 -3.55323 2.51939 1 1
194 1 0 14.2629 0 0 0 0 1 3
195 1 1.78286 16.0457 0 0 0 0 1 3
196 1 0.891429 15.1543 0.891429 0 0 0 1 2
197 1 0.922096 16.9382 2.72027 2.2006 0.371616 4.16765 1 1
198 1 2.71344 15.1506 2.69645 2.34304 0.609683 1.86489 1 1
199 1 2.67429 16.9371 0.891429 0 0 0 1 2
200 1 0.00588194 16.0401 1.81588 -6.1865 3.17847 -1.93559 1 1
201 1 3.58667 16.0389 1.79051 4.56053 2.87368 4.51605 1 1
202 1 3.56572 14.2629 0 0 0 0 1 3
203 1 5.34857 16.0457 0 0 0 0 1 3
204 1 4.45714 15.1543 0.891429 0 0 0 1 2
205 1 4.44318 16.8857 2.66886 -4.0032 -1.09991 1.80236 1 1
206 1 6.28075 15.2089 2.69937 2.27805 3.24346 -3.20384 1 1
207 1 6.24 16.9371 0.891429 0 0 0 1 2
208 1 7.17675 16.0819 1.78249 4.38378 -2.25722 1.03977 1 1
209 1 5.32226 17.7835 1.77709 0.944124 0.527445 -0.989478 1 1
210 1 8.92156 14.2709 1.77194 0.930511 -4.6362 -2.39441 1 1
211 1 7.13143 14.2629 0 0 0 0 1 3
212 1 8.02286 15.1543 0.891429 0 0 0 1 2
213 1 8.01717 16.9338 2.6564 -0.099115 -10.5965 4.99138 1 1
214 1 8.91429 16.0457 0 0 0 0 1 3
215 1 9.81675 15.1543 2.67319 -1.83531 4.03564 3.12309 1 1
216 1 9.80572 16.9371 0.891429 0 0 0 1 2
217 1 8.93986 17.823 1.75064 3.77789 -4.46303 -5.26453 1 1
218 1 10.6994 16.0592 1.76224 1.45214 7.87793 -3.18771 1 1
219 1 10.6971 14.2629 0 0 0 0 1 3
220 1 12.48 16.0457 0 0 0 0 1 3
221 1 11.5886 15.1543 0.891429 0 0 0 1 2
222 1 11.6165 16.9353 2.66663 1.61467 3.16249 -9.4724 1 1
223 1 13.3827 15.2173 2.69191 -9.45095 -0.120563 1.0808 1 1
224 1 13.3714 16.9371 0.891429 0 0 0 1 2
225 1 12.4468 17.8345 1.75714 -9.52993 -0.896047 0.0616788 1 1
226 1 16.0319 14.2584 1.76723 3.0033 -1.58281 -0.272784 1 1
227 1 14.292 16.0777 1.77248 1.10077 -1.37129 3.87826 1 1
228 1 14.2629 14.2629 0 0 0 0 1 3
229 1 16.0457 16.0457 0 0 0 0 1 3
230 1 15.1543 15.1543 0.891429 0 0 0 1 2
231 1 15.1676 16.9323 2.7131 2.66891 -6.92269 -4.99459 1 1
232 1 16.9327 15.1464 2.65728 -1.30026 -8.68647 -7.79322 1 1
233 1 16.9371 16.9371 0.891429 0 0 0 1 2
234 1 17.8411 16.0814 1.78523 -0.178801 2.704 5.14412 1 1
235 1 17.8286 14.2629 0 0 0 0 1 3
236 1 19.6114 16.0457 0 0 0 0 1 3
237 1 18.72 15.1543 0.891429 0 0 0 1 2
238 1 18.7119 16.9578 2.68988 0.0634298 -3.67385 2.70153 1 1
239 1 20.497 15.1343 2.75788 -1.50387 -1.00515 3.16297 1 1
240 1 20.5029 16.9371 0.891429 0 0 0 1 2
241 1 19.6168 17.8377 1.75809 0.918082 1.93315 1.14784 1 1
242 1 1.81068 17.8324 1.78732 -0.655579 -2.2711 4.36262 1 1
243 1 0 17.8286 0 0 0 0 1 3
244 1 1.78286 19.6114 0 0 0 0 1 3
245 1 0.891429 18.72 0.891429 0 0 0 1 2
246 1 0.937299 20.5019 2.66618 2.75442 -9.68135 3.03181 1 1
247 1 2.64205 18.732 2.68288 2.3564 4.70366 -5.84431 1 1
248 1 2.67429 20.5029 0.891429 0 0 0 1 2
249 1 3.59214 19.6 1.78422 -2.22775 10.0021 7.18006 1 1
250 1 0.0313784 19.5941 1.74619 1.43709 -2.60187 -4.40653 1 1
251 1 5.37021 21.3921 1.78166 3.24536 1.9005 -0.803068 1 1
252 1 3.56572 17.8286 0 0 0 0 1 3
253 1 5.34857 19.6114 0 0 0 0 1 3
254 1 4.45714 18.72 0.891429 0 0 0 1 2
255 1 4.46699 20.4594 2.66814 6.50315 6.36354 1.88332 1 1
256 1 6.21495 18.6903 2.69032 2.23237 3.29274 -4.26865 1 1
257 1 6.24 20.5029 0.891429 0 0 0 1 2
258 1 7.10703 19.6045 1.82188 7.97961 -4.33671 -1.59245 1 1
259 1 7.13143 17.8286 0 0 0 0 1 3
260 1 8.02286 18.72 0.891429 0 0 0 1 2
261 1 7.98228 20.5278 2.70034 -0.513489 3.23666 4.0152 1 1
262 1 8.91429 19.6114 0 0 0 0 1 3
263 1 9.81759 18.7125 2.64173 -1.25735 -5.05656 -0.354334 1 1
264 1 9.80572 20.5029 0.891429 0 0 0 1 2
265 1 10.7032 19.6132 1.75289 -0.917606 -3.24088 0.915675 1 1
266 1 12.4725 21.394 1.82745 -5.89128 7.16408 5.4734 1 1
267 1 10.6971 17.8286 0 0 0 0 1 3
268 1 12.48 19.6114 0 0 0 0 1 3
269 1 11.5886 18.72 0.891429 0 0 0 1 2
270 1 11.5648 20.5177 2.74223 8.34351 -0.0264319 -7.49333 1 1
271 1 13.3735 18.6816 2.62864 4.29062 -8.654 -1.25863 1 1
272 1 13.3714 20.5029 0.891429 0 0 0 1 2
273 1 14.2824 19.5926 1.77416 -1.33145 0.349688 5.9223 1 1
274 1 16.0774 17.8107 1.79439 -0.0943837 -8.58867 0.94705 1 1
275 1 14.2629 17.8286 0 0 0 0 1 3
276 1 16.0457 19.6114 0 0 0 0 1 3
277 1 15.1543 18.72 0.891429 0 0 0 1 2
278 1 15.1304 20.5087 2.67312 -1.479 -0.319692 -3.14226 1 1
279 1 16.8933 18.7382 2.69429 0.25636 0.661833 3.33743 1 1
280 1 16.9371 20.5029 0.891429 0 0 0 1 2
281 1 19.6162 0.00316813 1.77429 7.65633 -0.356218 0.486678 1 1
282 1 17.7988 19.5886 1.79604 -7.15289 -0.831167 -0.58552 1 1
283 1 17.8286 17.8286 0 0 0 0 1 3
284 1 19.6114 19.6114 0 0 0 0 1 3
285 1 18.72 18.72 0.891429 0 0 0 1 2
286 1 18.7112 20.5376 2.63598 -5.26854 1.96107 0.28155 1 1
287 1 20.5274 18.6767 2.61237 -1.13404 -3.48413 4.19087 1 1
288 1 20.5029 20.5029 0.891429 0 0 0 1 2
289 1 1.79945 1.79524 3.57159 4.55893 2.25451 -3.46502 1 1
290 1 0.908234 0.880933 4.4218 5.00408 0.50512 2.47014 1 1
291 1 2.68903 2.66719 4.4676 3.30104 -6.86203 -3.41148 1 1
292 1 1.78602 21.3662 5.32274 0.0218015 2.94779 -9.24867 1 1
293 1 1.79159 3.54242 5.35413 1.87667 -6.81138 2.39237 1 1
294 1 21.3808 1.74192 5.32752 3.76398 4.89191 3.40648 1 1
295 1 0.031666 -0.0437135 3.55212 -11.012 -1.375 -2.23643 1 1
296 1 3.6447 1.76058 5.33245 -0.194765 7.59141 -0.775597 1 1
297 1 5.3919 1.72762 3.53293 4.84802 -2.43526 4.90186 1 1
298 1 4.50767 0.832871 4.44166 -1.10135 -5.83183 -5.12446 1 1
299 1 6.24185 0.844181 6.2426 -13.9096 4.77201 6.53742 1 1
300 1 6.25419 2.63353 4.45124 -2.31355 -3.21676 -3.80296 1 1
301 1 3.57764 21.3345 3.52735 -4.00963 1.08915 -1.81526 1 1
302 1 7.10625 -0.00395631 3.60423 -5.35768 -1.13438 -0.933257 1 1
303 1 5.33429 21.3363 5.36083 -1.79553 -6.41343 -3.23877 1 1
304 1 7.15545 3.6072 3.55226 3.57066 6.05548 1.31395 1 1
305 1 7.11327 1.76264 5.37434 5.06778 2.34506 -3.62116 1 1
306 1 8.86227 1.80738 3.60718 0.29658 3.0011 -0.728468 1 1
307 1 7.9766 0.875833 4.46372 -8.24701 0.584243 -3.93135 1 1
308 1 7.97201 2.68401 6.225 -1.68474 -5.29782 5.67692 1 1
309 1 9.77439 0.866212 6.2277 -0.924042 7.39724 8.69963 1 1
310 1 9.77405 2.68643 4.52036 -0.654701 1.00037 -5.54099 1 1
311 1 10.6549 1.80103 5.38749 4.48438 0.499685 -0.776611 1 1
312 1 12.4542 1.80076 3.58853 -0.0687516 6.68818 -0.795473 1 1
313 1 11.5428 0.895206 4.47048 -1.61727 -2.65597 -1.42163 1 1
314 1 11.5741 2.69647 6.26124 10.4836 4.26915 1.66486 1 1
315 1 13.3689 2.64649 4.49588 -0.910405 -3.78915 0.314842 1 1
316 1 13.3386 0.895517 6.286 2.25731 0.519758 -10.0732 1 1
317 1 12.4907 3.51503 5.41195 -4.6594 -7.06554 -2.74346 1 1
318 1 14.2476 1.7624 5.38689 -3.88506 3.94049 -7.52574 1 1
319 1 12.4857 -0.011591 5.35269 5.6927 2.31944 1.07166 1 1
320 1 14.2527 3.50208 3.61383 1.09524 3.25145 1.87954 1 1
321 1 16.0514 1.78113 3.59832 -0.165758 -6.83223 1.06205 1 1
322 1 15.1695 0.931574 4.48018 -2.31591 3.12493 -5.03977 1 1
323 1 15.1502 2.67759 6.31704 -0.5999 11.5778 4.86616 1 1
324 1 16.8974 2.63786 4.52468 -1.77454 -4.56506 -4.92154 1 1
325 1 17.8339 1.73498 5.40865 4.49976 3.42706 -9.13287 1 1
326 1 16.1094 0.0197972 5.35791 -0.115743 -2.31699 3.2831 1 1
327 1 19.6023 1.7521 3.54103 -1.99917 1.47516 -1.90026 1 1
328 1 18.6899 0.873856 4.44302 4.29532 -6.3685 3.03873 1 1
329 1 20.4953 2.66796 4.44073 4.08564 7.00288 -1.41956 1 1
330 1 17.8035 0.0242418 3.54864 3.14387 -3.05948 1.23478 1 1
331 1 19.6188 -0.0134176 5.30357 -2.95637 -2.68309 0.526598 1 1
332 1 0.00329933 3.54498 3.56069 -6.05243 -0.388423 1.09235 1 1
333 1 1.78657 5.34813 3.53877 6.59234 -1.8932 5.28127 1 1
334 1 0.913727 4.47951 4.48468 -4.92561 8.85094 7.92992 1 1
335 1 2.69295 4.40374 6.29494 2.55547 -1.05198 -1.92605 1 1
336 1 2.68561 6.2242 4.48061 -1.8324 -3.36553 -12.1568 1 1
337 1 3.57057 3.58251 3.54636 -3.2961 -0.460852 -0.924425 1 1
338 1 21.3866 5.32388 5.38119 1.98078 -0.398731 -4.08726 1 1
339 1 3.59889 5.34849 5.40108 -8.27346 0.175856 5.81207 1 1
340 1 5.35356 3.5649 5.3319 1.6074 -1.37791 1.72426 1 1
341 1 5.31972 5.34953 3.60578 -2.68708 -8.61784 0.437933 1 1
342 1 4.47483 4.46814 4.46237 1.54148 -8.96821 -2.15747 1 1
343 1 4.44866 6.23331 6.25033 3.1778 -5.36747 2.22777 1 1
344 1 6.25026 6.24168 4.49294 -2.35996 2.05664 2.93549 1 1
345 1 7.11737 5.34499 5.34821 1.71909 -0.763428 -5.39663 1 1
346 1 5.34891 7.11235 5.36445 1.03084 -9.8781 11.0821 1 1
347 1 6.26264 4.46427 6.26282 1.41435 5.48912 -0.261385 1 1
348 1 8.87186 3.57025 5.34358 7.51697 3.25805 -0.440816 1 1
349 1 10.6584 3.55299 3.56159 5.30593 -3.9411 -5.26141 1 1
350 1 8.88237 5.35296 3.6029 1.90688 -1.675 -2.90233 1 1
351 1 7.99581 4.4552 4.43844 -4.2725 4.73976 -3.14263 1 1
352 1 7.99379 6.21307 6.25267 -8.10187 0.959683 1.94034 1 1
353 1 9.76905 4.48371 6.27873 6.87411 10.6308 -6.87629 1 1
354 1 9.8065 6.2265 4.47614 -11.0693 -4.7232 -7.04147 1 1
355 1 10.6978 5.33144 5.39481 -0.593079 -3.611 -4.48927 1 1
356 1 12.4359 5.32941 3.57423 6.18009 -1.33056 -4.90049 1 1
357 1 11.5822 4.41996 4.50751 -6.98442 -6.34443 3.15065 1 1
358 1 13.3394 6.20952 4.52693 -6.59788 -3.47919 -0.187151 1 1
359 1 14.2616 5.34432 5.4153 3.4852 -1.77942 3.79888 1 1
360 1 16.0526 3.54333 5.39267 -0.311651 -6.2437 2.24094 1 1
361 1 17.8098 3.53096 3.60523 8.59529 0.734967 -11.5449 1 1
362 1 16.0387 5.33931 3.58803 -1.39968 -5.42742 -5.37877 1 1
363 1 15.1462 4.46477 4.4966 -5.34216 8.90721 -4.32465 1 1
364 1 16.9486 6.23778 4.50964 -3.24956 7.74076 0.959065 1 1
365 1 16.9388 4.4215 6.3212 2.10851 -5.49648 3.51118 1 1
366 1 16.0298 7.15112 5.39784 0.0163825 -1.67005 -0.177428 1 1
367 1 15.176 6.19716 6.32057 -1.15884 -7.28973 2.11946 1 1
368 1 19.5974 3.53374 5.36272 -2.52389 -0.0543366 1.16606 1 1
369 1 17.8253 5.32078 5.43426 10.8269 3.37877 -1.45664 1 1
370 1 19.6065 5.32336 3.57557 -2.19024 3.35922 -1.21361 1 1
371 1 18.7083 4.42939 4.50893 -1.0825 -0.035801 5.70745 1 1
372 1 20.4812 4.45566 6.26642 4.52831 -2.57983 5.59238 1 1
373 1 20.491 6.22386 4.48714 3.63242 0.199296 -0.770781 1 1
374 1 19.6024 7.13642 5.41086 5.81969 -4.48276 0.196604 1 1
375 1 21.3944 7.11569 3.57652 5.84823 1.9988 -1.14866 1 1
376 1 1.81036 7.12148 5.39358 -2.84834 -5.23114 5.39887 1 1
377 1 1.78096 8.95168 3.56654 -10.7126 -1.26698 1.18682 1 1
378 1 0.904207 7.98253 4.51177 -3.12987 8.24944 5.40385 1 1
379 1 2.70079 8.00722 6.30751 1.16812 -5.27721 -6.50211 1 1
380 1 0.840688 9.78465 6.30071 -0.29858 2.4654 0.910768 1 1
381 1 2.66866 9.76586 4.49707 -4.12816 3.25782 2.52032 1 1
382 1 -0.0183938 8.89882 5.41644 -3.10774 2.86083 8.85386 1 1
383 1 1.77892 10.6964 5.43884 -8.04458 -7.74583 5.40206 1 1
384 1 3.56177 7.15174 3.5776 7.41408 4.52102 -3.9047 1 1
385 1 7.15043 7.13514 3.5544 5.76037 3.08737 0.870255 1 1
386 1 3.5637 10.6706 3.56264 -0.316335 -2.79883 4.64995 1 1
387 1 3.59262 8.89718 5.37809 -6.98019 -8.78521 4.03521 1 1
388 1 5.33671 8.87824 3.58604 3.38826 -2.51916 1.67992 1 1
389 1 4.46217 8.02046 4.45402 0.502343 3.30399 -16.2585 1 1
390 1 4.4767 9.80246 6.26595 0.151259 1.90812 -1.17931 1 1
391 1 6.26489 9.83548 4.46354 -2.62552 0.328504 -0.670066 1 1
392 1 8.9164 7.10034 5.36227 0.353822 -5.48855 6.94241 1 1
393 1 7.07409 8.88162 5.39324 -6.29217 4.54607 1.01707 1 1
394 1 8.8782 8.88105 3.51834 -4.238 5.56032 -3.56338 1 1
395 1 8.0317 8.0062 4.46259 -0.940328 -0.70453 -1.269 1 1
396 1 9.82127 9.7847 4.43116 1.78158 0.555464 -5.16384 1 1
397 1 10.6935 8.88173 5.37637 -3.56507 8.73275 0.177787 1 1
398 1 10.7154 10.6939 3.55911 -0.298074 -5.57142 -0.378937 1 1
399 1 9.78025 7.97551 6.25847 3.91429 -3.52293 4.7751 1 1
400 1 12.4929 7.14581 5.41123 5.34696 3.01328 5.15165 1 1
401 1 10.7332 7.11678 3.56443 4.11176 7.4527 3.21982 1 1
402 1 12.5007 8.88194 3.57518 3.30542 3.67403 2.42514 1 1
403 1 11.5907 8.02585 4.47901 -7.08393 6.06786 4.7126 1 1
404 1 13.4052 9.81915 4.49103 4.47475 -1.09015 -1.70842 1 1
405 1 14.222 7.09453 3.62735 0.768647 3.09192 0.76192 1 1
406 1 14.2782 8.93463 5.40957 2.52 -1.80266 4.50457 1 1
407 1 17.8156 7.10226 3.62746 -3.50546 1.05685 0.252962 1 1
408 1 15.9874 8.89435 3.58621 9.77917 5.83067 3.87891 1 1
409 1 15.1236 7.98329 4.48665 -4.77998 -5.06912 -2.3699 1 1
410 1 16.9096 9.77405 4.54638 -2.30071 -4.87404 6.25141 1 1
411 1 16.0253 10.6825 5.42095 -1.17163 6.35147 -0.486028 1 1
412 1 16.9102 8.06733 6.33089 1.96947 5.82537 -0.449307 1 1
413 1 17.8031 8.93292 5.40958 -0.853443 -2.1119 -1.40682 1 1
414 1 19.5812 8.90648 3.57209 0.999035 -6.34547 3.20532 1 1
415 1 18.7163 7.99253 4.52373 4.71178 0.11231 -7.85538 1 1
416 1 18.6833 9.7628 6.31368 -1.74604 1.00524 -3.07252 1 1
417 1 20.4573 9.78492 4.48837 -1.11789 3.41335 -6.53045 1 1
418 1 20.502 8.00769 6.30798 -1.65941 3.60008 3.0604 1 1
419 1 19.5949 10.6857 5.45864 2.48587 0.89725 1.5435 1 1
420 1 21.3977 10.6645 3.57468 -1.29708 0.238067 -3.11285 1 1
421 1 1.76908 12.4522 3.62765 3.04101 -4.73587 3.52175 1 1
422 1 0.850756 11.5472 4.49636 -2.01942 0.905703 -3.06029 1 1
423 1 2.67269 11.594 6.31631 7.11353 1.3676 4.80893 1 1
424 1 0.902727 13.3333 6.29518 0.547455 2.81467 2.1587 1 1
425 1 2.66517 13.3885 4.47232 -4.46437 9.50064 -1.71066 1 1
426 1 -0.0321611 12.4681 5.40402 -2.3544 -1.62108 6.96569 1 1
427 1 5.31228 10.6801 5.37629 -1.29273 -1.83567 0.904644 1 1
428 1 3.58992 14.3009 3.61502 -3.06403 -0.973158 4.54859 1 1
429 1 3.50126 12.484 5.40705 -2.20509 0.815218 -5.25458 1 1
430 1 5.32817 12.4817 3.62902 -1.99526 -3.24438 0.827269 1 1
431 1 4.42205 11.575 4.49868 -5.88123 -1.41692 -0.654796 1 1
432 1 6.25248 13.3917 4.46335 2.00503 8.54066 -1.52101 1 1
433 1 7.10652 14.2843 3.5415 2.44918 5.3373 7.20358 1 1
434 1 6.24485 11.5865 6.2549 4.86513 -5.21543 3.04251 1 1
435 1 7.10603 10.724 3.56684 -2.60952 -7.05104 4.35907 1 1
436 1 7.13082 12.5031 5.34694 -1.70204 -1.93268 3.76224 1 1
437 1 8.91947 10.7228 5.31562 -3.02015 0.460117 0.894081 1 1
438 1 8.90241 12.4586 3.54743 -9.41537 0.407226 -2.60397 1 1
439 1 8.00201 11.5916 4.39763 2.22541 8.04069 -4.91722 1 1
440 1 9.76124 11.6133 6.27095 6.87084 5.38654 5.20736 1 1
441 1 7.977 13.3668 6.28447 5.55317 -1.30516 -1.6107 1 1
442 1 9.82805 13.376 4.48141 0.517853 -0.437541 1.21747 1 1
443 1 10.6911 14.2788 3.61347 3.22679 1.12488 2.1275 1 1
444 1 12.5007 10.6273 5.37945 3.80563 7.18437 -2.3422 1 1
445 1 10.7262 12.4967 5.39532 -5.39318 2.7961 -9.73373 1 1
446 1 12.5259 12.4652 3.54592 -6.31816 2.47973 1.96112 1 1
447 1 11.6102 11.5493 4.45691 -0.920766 -4.8332 5.76609 1 1
448 1 13.3406 11.5978 6.28249 -1.75676 4.67208 -0.654862 1 1
449 1 11.5916 13.4039 6.27483 8.43557 3.04658 3.84748 1 1
450 1 13.3802 13.3295 4.48771 8.9746 1.16822 -1.66343 1 1
451 1 14.265 10.7099 3.58267 6.35901 -1.62539 4.48516 1 1
452 1 14.2548 12.472 5.37419 -1.70045 -3.78192 -5.5806 1 1
453 1 15.9879 12.4857 3.56714 -12.2265 1.04123 -6.46585 1 1
454 1 15.1436 11.6029 4.54566 0.824553 2.11368 -5.94998 1 1
455 1 16.9251 11.5863 6.30302 -2.1226 -0.626783 4.95162 1 1
456 1 16.9076 13.3314 4.45847 -3.79098 5.69418 -1.6076 1 1
457 1 17.8155 12.4637 5.34976 3.02822 4.01693 0.637944 1 1
458 1 15.1357 13.3524 6.25804 -2.97004 -0.796722 -0.261644 1 1
459 1 17.7637 10.6495 3.61892 -0.285991 1.63661 -0.432535 1 1
460 1 19.6358 12.4555 3.57433 2.93732 6.60153 3.09293 1 1
461 1 18.6814 11.548 4.47861 6.52816 -0.00466028 -2.24153 1 1
462 1 18.7168 13.3523 6.26546 -1.5642 -0.687502 -5.26156 1 1
463 1 20.5277 13.352 4.53285 7.63711 -0.433796 -2.88551 1 1
464 1 20.4808 11.5715 6.31826 5.87407 2.4124 -3.21813 1 1
465 1 1.78786 14.2969 5.36145 -3.6671 2.19475 -0.490655 1 1
466 1 1.80736 16.0738 3.5292 0.900856 7.2202 -8.28651 1 1
467 1 0.838783 15.1697 4.42943 5.50957 -2.57653 -3.1789 1 1
468 1 2.63145 15.2008 6.28638 -4.13708 -5.46948 1.76066 1 1
469 1 2.67612 16.948 4.47904 4.73934 -0.00314077 0.221721 1 1
470 1 -0.000638988 16.0335 5.32599 -6.49045 11.2508 0.28851 1 1
471 1 21.4133 14.2166 3.5998 1.28311 3.37775 4.48384 1 1
472 1 1.74102 17.8312 5.38809 0.252604 -3.69289 -1.5616 1 1
473 1 5.36946 14.2475 5.39864 0.770618 -6.31553 -5.34641 1 1
474 1 3.5669 16.0566 5.35152 -0.0254186 -3.62005 -2.77428 1 1
475 1 5.36776 16.0368 3.59418 1.06126 -2.15033 -10.043 1 1
476 1 4.46664 15.1517 4.51618 1.0703 1.23294 1.61293 1 1
477 1 4.45829 16.9592 6.27403 -6.0486 0.17651 -0.639948 1 1
478 1 6.20596 15.1893 6.29453 7.06469 -12.6053 -6.71975 1 1
479 1 6.29159 16.963 4.44544 -4.05213 -6.65748 -1.97188 1 1
480 1 7.12415 16.0908 5.40223 -5.24722 10.1303 -6.4031 1 1
481 1 8.88834 14.2642 5.33798 2.92523 -6.17869 -0.0466956 1 1
482 1 8.94615 16.0707 3.55099 -1.89755 -3.94685 -4.45109 1 1
483 1 7.98646 15.1736 4.50698 -6.22018 2.08063 2.48165 1 1
484 1 8.04082 16.9906 6.25476 -10.9172 0.731807 4.75227 1 1
485 1 9.75307 15.1548 6.26957 -0.594327 -0.783469 -10.9353 1 1
486 1 9.81042 16.9573 4.47076 3.39172 2.01515 -5.21243 1 1
487 1 10.7068 16.0492 5.38584 0.98936 -7.01512 -1.15163 1 1
488 1 8.92858 17.8508 5.38348 -2.93559 1.10829 0.494571 1 1
489 1 10.7066 17.8636 3.53764 3.35449 -7.82204 -5.32269 1 1
490 1 12.4812 14.2968 5.358 -6.58056 -4.40344 0.74728 1 1
491 1 12.4777 16.0768 3.57045 -7.53574 -3.51606 2.76729 1 1
492 1 11.5749 15.1565 4.49447 -4.88725 3.55649 3.21298 1 1
493 1 11.5457 16.9435 6.2741 11.7326 -7.9142 2.19921 1 1
494 1 13.3584 16.9823 4.50807 2.06169 6.71667 -3.52745 1 1
495 1 13.3641 15.1411 6.28908 -6.08436 0.00818301 2.90941 1 1
496 1 12.4426 17.8192 5.35929 -1.96312 3.90699 1.06285 1 1
497 1 14.2495 14.2827 3.58578 -5.64416 3.01548 -9.01804 1 1
498 1 16.0428 14.2474 5.36367 7.17121 -4.53018 0.477968 1 1
499 1 17.8391 14.2036 3.55683 -8.73548 1.59926 5.29281 1 1
500 1 14.2559 16.0901 5.40019 -5.59294 -2.26298 5.23831 1 1
501 1 14.2213 17.842 3.56198 1.32777 3.68567 -8.85736 1 1
502 1 16.0242 16.025 3.59481 -3.70941 4.34598 -5.85804 1 1
503 1 15.1782 15.1615 4.51266 2.25126 -8.59985 -0.690795 1 1
504 1 16.9298 16.9552 4.52079 3.77757 2.03388 -2.90328 1 1
505 1 16.9396 15.096 6.23168 -3.7737 -1.25102 1.74717 1 1
506 1 17.777 16.0458 5.35859 -6.77106 -4.10483 -3.33485 1 1
507 1 19.5976 14.2554 5.4199 -6.95235 10.8974 7.07468 1 1
508 1 19.6067 16.0419 3.55687 5.31686 -4.98016 1.17802 1 1
509 1 18.7252 15.1271 4.49862 -0.440802 5.99494 -1.29399 1 1
510 1 20.471 16.9378 4.47203 -1.96014 1.02642 -1.10128 1 1
511 1 19.588 17.8356 5.33065 0.695424 -4.34559 5.53798 1 1
512 1 20.5516 15.1468 6.28814 -0.749014 4.94805 0.508872 1 1
513 1 1.82457 19.6073 3.51923 5.53286 4.16389 -0.234656 1 1
514 1 0.881948 18.7337 4.44624 -1.5952 8.56942 1.90571 1 1
515 1 0.923161 20.5125 6.29442 -6.71282 -3.46216 5.62265 1 1
516 1 2.69362 20.4939 4.47258 -6.33197 -0.290057 -0.517204 1 1
517 1 21.4374 17.7909 3.56799 1.34528 -5.07247 4.02573 1 1
518 1 0.0367594 19.597 5.33539 -2.50234 5.07359 4.50002 1 1
519 1 2.65096 18.7252 6.28353 0.667929 -7.14763 7.854 1 1
520 1 5.3774 17.8633 5.38443 -0.556994 6.97217 -2.85696 1 1
521 1 3.55987 17.8118 3.57809 0.855186 2.60662 -10.1607 1 1
522 1 3.54035 19.6017 5.33982 -2.04275 -6.43974 7.49052 1 1
523 1 5.36224 19.5867 3.57863 -7.57416 5.69869 -1.86872 1 1
524 1 4.49012 18.6898 4.44421 -2.81571 3.59411 0.332292 1 1
525 1 4.48016 20.4218 6.24416 -7.73229 3.05114 2.80439 1 1
526 1 6.27196 18.7159 6.26384 -5.21692 -3.23877 -3.82138 1 1
527 1 6.27558 20.4982 4.48527 -1.51675 -5.96466 -0.966282 1 1
528 1 7.19092 17.8194 3.57989 -2.40632 -2.95185 -7.80533 1 1
529 1 7.12175 19.626 5.32582 0.541775 4.33346 1.95226 1 1
530 1 8.89348 21.3846 5.35582 7.72422 5.80695 1.24048 1 1
531 1 8.91408 19.6202 3.5837 -5.20676 1.86932 -7.63893 1 1
532 1 8.0414 18.7519 4.46769 -2.53858 4.32552 -0.595589 1 1
533 1 8.01392 20.4839 6.22699 8.36572 -2.06234 -0.294337 1 1
534 1 9.76691 18.7604 6.2639 -0.776112 -11.9187 -5.71446 1 1
535 1 9.82837 20.4889 4.48239 0.759376 6.77112 6.55612 1 1
536 1 10.6836 19.577 5.37581 5.7549 -4.18251 -3.56737 1 1
537 1 10.6826 21.3913 3.58756 -2.8485 1.99475 3.55099 1 1
538 1 12.4858 19.6171 3.56814 -0.892657 10.0864 -0.212627 1 1
539 1 11.5938 18.7603 4.44734 2.82287 -1.78401 -0.112998 1 1
540 1 13.3822 18.7156 6.32265 -2.50105 5.39721 7.30864 1 1
541 1 13.3421 20.5405 4.50113 -3.94292 2.81183 -4.52488 1 1
542 1 16.0167 17.8615 5.37797 1.3607 5.92539 -0.461675 1 1
543 1 14.233 21.4427 3.58601 16.6158 5.1672 -4.34259 1 1
544 1 14.2278 19.6696 5.41818 -0.409787 0.336791 -2.48601 1 1
545 1 16.0184 19.6302 3.57328 -6.01915 2.72227 0.553169 1 1
546 1 15.0921 18.7711 4.47283 5.08347 -0.0635414 4.31309 1 1
547 1 16.8937 18.7243 6.30174 2.21863 -3.57128 4.44563 1 1
548 1 16.9447 20.5173 4.43977 -3.77558 -6.03908 3.94449 1 1
549 1 17.8249 19.5676 5.33809 10.3823 3.79751 0.671784 1 1
550 1 17.8406 17.8627 3.55002 -0.0971442 -0.278021 -3.44867 1 1
551 1 19.6254 19.6152 3.49547 -0.425903 2.10564 -1.55565 1 1
552 1 18.7101 18.7122 4.40653 2.97544 -7.28613 -0.805097 1 1
553 1 18.7058 20.4672 6.25745 -0.0223029 -2.96495 0.556876 1 1
554 1 20.4809 18.7422 6.22366 -4.85819 5.9991 6.72175 1 1
555 1 20.4997 20.5155 4.45809 -7.85586 -2.0216 -7.93526 1 1