ITEM: TIMESTEP
1600
ITEM: NUMBER OF ATOMS
2952
ITEM: BOX BOUNDS pp pp mm
0.0000000000000000e+00 2.1394294200000001e+01
0.0000000000000000e+00 2.1394294200000001e+01
-4.4571446250000002e-01 5.3485735500000004e+01
ITEM: ATOMS id type x y z vx vy vz v_is_diamond c_structure_type
1 1 0 0 0 0 0 0 1 3
2 1 1.78286 1.78286 0 0 0 0 1 3
3 1 0.891429 0.891429 0.891429 0 0 0 1 2
4 1 0.914143 2.66935 2.67915 -0.708684 -5.90741 -1.35429 1 1
5 1 2.68681 0.876593 2.63597 7.5677 -2.81657 -3.70827 1 1
6 1 2.67429 2.67429 0.891429 0 0 0 1 2
7 1 0.0239345 1.79378 1.76906 -3.81878 2.60687 5.10845 1 1
8 1 1.80925 0.00351654 1.76554 2.65148 -0.983583 0.880421 1 1
9 1 1.77304 3.62583 1.82377 -1.87085 3.71237 -6.18191 1 1
10 1 3.55936 1.79787 1.75721 -4.9263 -5.3431 1.54809 1 1
11 1 3.56572 0 0 0 0 0 1 3
12 1 5.34857 1.78286 0 0 0 0 1 3
13 1 4.45714 0.891429 0.891429 0 0 0 1 2
14 1 4.44119 2.69525 2.65516 -5.30798 0.119438 -3.66695 1 1
15 1 6.21911 0.906856 2.66894 5.70508 0.0942909 -7.18207 1 1
16 1 6.24 2.67429 0.891429 0 0 0 1 2
17 1 7.14613 1.75799 1.78342 -2.5733 -1.9715 -9.23589 1 1
18 1 7.13143 0 0 0 0 0 1 3
19 1 8.02286 0.891429 0.891429 0 0 0 1 2
20 1 8.02392 2.67094 2.70011 -0.0241145 -4.83047 -3.47116 1 1
21 1 8.91429 1.78286 0 0 0 0 1 3
22 1 9.78948 0.893146 2.69716 1.95526 -4.63555 7.98826 1 1
23 1 9.80572 2.67429 0.891429 0 0 0 1 2
24 1 8.87786 0.0360481 1.76212 3.39516 2.68182 -7.46689 1 1
25 1 10.6774 1.76824 1.808 2.38631 -3.10306 3.14479 1 1
26 1 10.6971 0 0 0 0 0 1 3
27 1 12.48 1.78286 0 0 0 0 1 3
28 1 11.5886 0.891429 0.891429 0 0 0 1 2
29 1 11.5946 2.70045 2.68554 2.33618 -2.26579 -1.28427 1 1
30 1 13.3873 0.913831 2.70959 -4.59465 -4.00301 -0.562876 1 1
31 1 13.3714 2.67429 0.891429 0 0 0 1 2
32 1 14.2565 1.8163 1.77441 -1.80698 4.43681 -2.17067 1 1
33 1 14.2629 0 0 0 0 0 1 3
34 1 16.0457 1.78286 0 0 0 0 1 3
35 1 15.1543 0.891429 0.891429 0 0 0 1 2
36 1 15.1378 2.70051 2.67538 2.06605 4.19275 -7.71115 1 1
37 1 16.9662 0.852057 2.71942 8.27852 -4.21832 -5.05609 1 1
38 1 16.9371 2.67429 0.891429 0 0 0 1 2
39 1 16.0588 0.0236219 1.73963 -1.77124 -3.70484 0.615441 1 1
40 1 17.8418 1.81304 1.78794 -2.71924 -7.79445 4.04843 1 1
41 1 17.8286 0 0 0 0 0 1 3
42 1 19.6114 1.78286 0 0 0 0 1 3
43 1 18.72 0.891429 0.891429 0 0 0 1 2
44 1 18.7281 2.70242 2.64929 -5.15788 -5.51281 1.83525 1 1
45 1 20.4959 0.938418 2.64135 -3.99625 -10.7906 -1.51969 1 1
46 1 20.5029 2.67429 0.891429 0 0 0 1 2
47 1 0 3.56572 0 0 0 0 1 3
48 1 1.78286 5.34857 0 0 0 0 1 3
49 1 0.891429 4.45714 0.891429 0 0 0 1 2
50 1 0.922337 6.23757 2.64107 1.78521 -10.3742 -5.86266 1 1
51 1 2.64519 4.49794 2.70752 3.87664 2.29131 3.17388 1 1
52 1 2.67429 6.24 0.891429 0 0 0 1 2
53 1 3.53721 5.35116 1.7806 2.03382 3.40882 -5.96603 1 1
54 1 5.35402 3.56673 1.72146 -2.30615 -4.36727 0.840163 1 1
55 1 3.56572 3.56572 0 0 0 0 1 3
56 1 5.34857 5.34857 0 0 0 0 1 3
57 1 4.45714 4.45714 0.891429 0 0 0 1 2
58 1 4.45761 6.23029 2.68105 0.38498 0.845717 1.31501 1 1
59 1 6.23557 4.46791 2.60912 -1.24815 -0.447476 -1.2639 1 1
60 1 6.24 6.24 0.891429 0 0 0 1 2
61 1 5.32642 7.10027 1.79423 -4.89835 -0.825341 -6.58501 1 1
62 1 7.13563 5.32131 1.78473 -1.35139 -1.87237 -4.67931 1 1
63 1 7.13143 3.56572 0 0 0 0 1 3
64 1 8.89272 3.55563 1.74712 -8.82173 0.604011 -11.6998 1 1
65 1 8.02286 4.45714 0.891429 0 0 0 1 2
66 1 8.02985 6.2073 2.68361 8.84491 -4.24278 0.418166 1 1
67 1 8.91429 5.34857 0 0 0 0 1 3
68 1 9.81467 4.46062 2.65056 6.30707 -2.09397 -3.54732 1 1
69 1 9.80572 6.24 0.891429 0 0 0 1 2
70 1 10.7007 5.34591 1.77798 2.62322 -6.83677 -0.236281 1 1
71 1 12.4494 3.58523 1.76956 -1.18169 -5.67617 2.352 1 1
72 1 10.6971 3.56572 0 0 0 0 1 3
73 1 12.48 5.34857 0 0 0 0 1 3
74 1 11.5886 4.45714 0.891429 0 0 0 1 2
75 1 11.5538 6.25893 2.6904 2.24428 -10.4715 -1.24916 1 1
76 1 13.3504 4.44136 2.66944 8.39961 1.65227 -7.04175 1 1
77 1 13.3714 6.24 0.891429 0 0 0 1 2
78 1 14.2801 5.35796 1.8 2.2032 -0.767111 -0.627637 1 1
79 1 16.0494 3.59228 1.80963 -7.32737 1.6607 -3.26629 1 1
80 1 14.2629 3.56572 0 0 0 0 1 3
81 1 16.0457 5.34857 0 0 0 0 1 3
82 1 15.1543 4.45714 0.891429 0 0 0 1 2
83 1 15.1292 6.23176 2.69453 3.11781 1.15429 2.98633 1 1
84 1 16.9448 4.44655 2.68055 2.21667 -6.34852 -2.46907 1 1
85 1 16.9371 6.24 0.891429 0 0 0 1 2
86 1 17.8073 5.34669 1.77449 -2.12553 9.50504 -0.412329 1 1
87 1 19.6171 3.57689 1.77919 0.906455 -0.663176 3.84657 1 1
88 1 0.0285619 5.28904 1.78929 2.99769 0.398109 -4.12412 1 1
89 1 17.8286 3.56572 0 0 0 0 1 3
90 1 19.6114 5.34857 0 0 0 0 1 3
91 1 18.72 4.45714 0.891429 0 0 0 1 2
92 1 18.6988 6.20845 2.67264 0.127033 -7.15245 -0.95273 1 1
93 1 20.4979 4.43249 2.66821 1.7593 -3.68114 -4.65124 1 1
94 1 20.5029 6.24 0.891429 0 0 0 1 2
95 1 19.6007 7.09891 1.78542 -8.57554 5.09626 -6.18378 1 1
96 1 1.74631 7.11792 1.76409 -0.570259 -1.43696 -0.201151 1 1
97 1 0 7.13143 0 0 0 0 1 3
98 1 0.891429 8.02286 0.891429 0 0 0 1 2
99 1 2.6582 8.02865 2.6445 -3.781 -1.53464 -3.46074 1 1
100 1 1.78286 8.91429 0 0 0 0 1 3
101 1 0.919701 9.78162 2.67773 2.17839 -9.51008 6.94733 1 1
102 1 2.67429 9.80572 0.891429 0 0 0 1 2
103 1 1.7946 10.6647 1.78859 1.36754 -3.79962 -0.425177 1 1
104 1 3.58286 8.91565 1.76969 -3.97998 0.359604 2.52143 1 1
105 1 3.56572 7.13143 0 0 0 0 1 3
106 1 4.45714 8.02286 0.891429 0 0 0 1 2
107 1 6.19723 7.97014 2.71278 5.40917 0.114659 2.7464 1 1
108 1 5.34857 8.91429 0 0 0 0 1 3
109 1 4.48144 9.83263 2.70497 6.13177 1.20644 4.80281 1 1
110 1 6.24 9.80572 0.891429 0 0 0 1 2
111 1 7.15007 8.89905 1.834 0.0544372 1.34837 -5.2126 1 1
112 1 8.93527 7.10462 1.802 0.791502 -3.84065 5.4565 1 1
113 1 7.13143 7.13143 0 0 0 0 1 3
114 1 8.02286 8.02286 0.891429 0 0 0 1 2
115 1 9.76452 8.01243 2.70889 2.09546 3.56122 10.5775 1 1
116 1 8.04713 9.79201 2.67603 2.37055 1.01254 5.14468 1 1
117 1 8.91429 8.91429 0 0 0 0 1 3
118 1 9.80572 9.80572 0.891429 0 0 0 1 2
119 1 10.6496 8.91302 1.79525 0.0536568 -11.0484 -6.55422 1 1
120 1 12.4862 7.16066 1.80595 0.0281943 -3.179 -6.48369 1 1
121 1 10.6971 7.13143 0 0 0 0 1 3
122 1 11.5886 8.02286 0.891429 0 0 0 1 2
123 1 13.3582 8.04881 2.73687 6.944 2.63022 -3.04962 1 1
124 1 12.48 8.91429 0 0 0 0 1 3
125 1 11.5548 9.79638 2.65837 -8.53227 3.62286 4.03467 1 1
126 1 13.3714 9.80572 0.891429 0 0 0 1 2
127 1 12.4852 10.742 1.78647 2.7434 -0.404729 -0.765876 1 1
128 1 16.09 7.12202 1.80552 -3.87683 -4.01092 -3.28575 1 1
129 1 14.3006 8.88662 1.76058 -5.06666 -3.86899 -3.45832 1 1
130 1 14.2629 7.13143 0 0 0 0 1 3
131 1 15.1543 8.02286 0.891429 0 0 0 1 2
132 1 16.9633 8.02065 2.70614 -1.41638 -1.33412 -2.59153 1 1
133 1 16.0457 8.91429 0 0 0 0 1 3
134 1 15.1163 9.77486 2.69804 -1.81601 3.9079 3.38871 1 1
135 1 16.9371 9.80572 0.891429 0 0 0 1 2
136 1 16.0133 10.6876 1.83353 -1.87605 -0.528477 0.14215 1 1
137 1 17.8496 8.89284 1.79643 1.336 0.636552 -1.94604 1 1
138 1 0.027172 8.88961 1.78486 0.572377 -0.881365 -3.55045 1 1
139 1 17.8286 7.13143 0 0 0 0 1 3
140 1 18.72 8.02286 0.891429 0 0 0 1 2
141 1 20.54 8.00338 2.67354 -6.55965 -11.4497 -6.23243 1 1
142 1 19.6114 8.91429 0 0 0 0 1 3
143 1 18.7309 9.79448 2.64652 6.76211 2.74278 2.11946 1 1
144 1 20.5029 9.80572 0.891429 0 0 0 1 2
145 1 0 10.6971 0 0 0 0 1 3
146 1 1.78286 12.48 0 0 0 0 1 3
147 1 0.891429 11.5886 0.891429 0 0 0 1 2
148 1 2.71151 11.5862 2.66899 -1.09378 -4.87007 -6.53367 1 1
149 1 0.9161 13.3754 2.64594 -13.7605 8.828 1.33373 1 1
150 1 2.67429 13.3714 0.891429 0 0 0 1 2
151 1 0.00429725 12.4273 1.78891 -5.11252 0.0256729 -7.01887 1 1
152 1 5.34795 10.689 1.79116 -0.214881 1.49447 -1.48833 1 1
153 1 3.56313 12.4563 1.74181 -0.238069 -3.75564 7.50701 1 1
154 1 3.56572 10.6971 0 0 0 0 1 3
155 1 5.34857 12.48 0 0 0 0 1 3
156 1 4.45714 11.5886 0.891429 0 0 0 1 2
157 1 6.25039 11.5883 2.6297 0.936575 -6.90346 2.43826 1 1
158 1 4.44882 13.3237 2.62174 -2.79098 -0.915392 -5.98597 1 1
159 1 6.24 13.3714 0.891429 0 0 0 1 2
160 1 5.32791 14.2761 1.77593 3.30127 -3.91822 3.91157 1 1
161 1 8.91755 10.7067 1.78696 -1.41674 -1.80018 -3.37964 1 1
162 1 7.14629 12.5014 1.7878 -1.42416 2.11243 -8.16723 1 1
163 1 7.13143 10.6971 0 0 0 0 1 3
164 1 8.02286 11.5886 0.891429 0 0 0 1 2
165 1 8.91429 12.48 0 0 0 0 1 3
166 1 9.77209 11.6027 2.68242 -2.2069 4.28994 -2.87416 1 1
167 1 8.04782 13.3783 2.70483 -1.20798 2.85184 -2.38319 1 1
168 1 9.80572 13.3714 0.891429 0 0 0 1 2
169 1 10.6977 12.506 1.81333 -4.24553 -3.31083 4.72471 1 1
170 1 10.6971 10.6971 0 0 0 0 1 3
171 1 12.48 12.48 0 0 0 0 1 3
172 1 11.5886 11.5886 0.891429 0 0 0 1 2
173 1 13.3324 11.5939 2.69137 1.02927 -1.24152 0.0375277 1 1
174 1 11.5914 13.4267 2.6445 -5.06255 -10.5022 -8.07317 1 1
175 1 13.3714 13.3714 0.891429 0 0 0 1 2
176 1 12.5028 14.2518 1.7534 -5.315 -0.428315 -2.6915 1 1
177 1 14.2666 12.4565 1.77202 -0.879877 -0.617001 1.32073 1 1
178 1 14.2629 10.6971 0 0 0 0 1 3
179 1 16.0457 12.48 0 0 0 0 1 3
180 1 15.1543 11.5886 0.891429 0 0 0 1 2
181 1 16.9207 11.5646 2.67487 2.44813 3.90569 -7.81663 1 1
182 1 15.1479 13.3658 2.64637 -3.08131 4.32078 3.86054 1 1
183 1 16.9371 13.3714 0.891429 0 0 0 1 2
184 1 17.7851 12.5078 1.79497 4.80001 -0.4746 -0.894718 1 1
185 1 19.636 10.6454 1.80098 9.64329 -2.13743 5.81187 1 1
186 1 17.8286 10.6971 0 0 0 0 1 3
187 1 19.6114 12.48 0 0 0 0 1 3
188 1 18.72 11.5886 0.891429 0 0 0 1 2
189 1 20.5312 11.5604 2.69121 -1.14729 -3.47537 0.0401038 1 1
190 1 18.6769 13.3413 2.69632 5.13039 -1.79578 -3.14156 1 1
191 1 20.5029 13.3714 0.891429 0 0 0 1 2
192 1 19.6197 14.2766 1.80215 -0.68565 1.41976 -8.91104 1 1
193 1 1.81312 14.2516 1.80788 -3.31386 0.114962 5.02297 1 1
194 1 0 14.2629 0 0 0 0 1 3
195 1 1.78286 16.0457 0 0 0 0 1 3
196 1 0.891429 15.1543 0.891429 0 0 0 1 2
197 1 0.932314 16.8847 2.66637 -4.5777 10.3238 8.65888 1 1
198 1 2.67825 15.1397 2.682 0.509795 -2.6523 -0.717622 1 1
199 1 2.67429 16.9371 0.891429 0 0 0 1 2
200 1 21.3917 16.0171 1.75944 1.2365 -3.06935 2.11502 1 1
201 1 3.54198 16.079 1.80706 0.377278 1.57356 5.38744 1 1
202 1 3.56572 14.2629 0 0 0 0 1 3
203 1 5.34857 16.0457 0 0 0 0 1 3
204 1 4.45714 15.1543 0.891429 0 0 0 1 2
205 1 4.47492 16.9221 2.70707 -4.04881 3.9941 -0.224046 1 1
206 1 6.20265 15.142 2.68875 8.87556 2.82458 -4.61107 1 1
207 1 6.24 16.9371 0.891429 0 0 0 1 2
208 1 7.12215 16.0497 1.79339 1.15641 8.17724 -5.79265 1 1
209 1 5.3225 17.8326 1.80277 -1.70433 -1.33515 4.15324 1 1
210 1 8.88487 14.2721 1.79036 -4.58509 -3.79113 -3.25459 1 1
211 1 7.13143 14.2629 0 0 0 0 1 3
212 1 8.02286 15.1543 0.891429 0 0 0 1 2
213 1 7.98806 16.9326 2.66041 -9.40152 -0.305631 1.65172 1 1
214 1 8.91429 16.0457 0 0 0 0 1 3
215 1 9.79507 15.1749 2.64348 -2.17541 -8.56425 2.66519 1 1
216 1 9.80572 16.9371 0.891429 0 0 0 1 2
217 1 8.91721 17.8653 1.80872 5.70875 4.55745 -6.29938 1 1
218 1 10.7034 16.0447 1.75068 -2.98342 -2.33926 4.23603 1 1
219 1 10.6971 14.2629 0 0 0 0 1 3
220 1 12.48 16.0457 0 0 0 0 1 3
221 1 11.5886 15.1543 0.891429 0 0 0 1 2
222 1 11.6046 16.9078 2.66382 1.16842 -5.48504 -1.43879 1 1
223 1 13.3536 15.1743 2.68635 -9.38664 7.97208 0.12638 1 1
224 1 13.3714 16.9371 0.891429 0 0 0 1 2
225 1 12.4593 17.849 1.83049 -3.53734 0.758051 -2.26684 1 1
226 1 16.0047 14.2799 1.7739 -0.310597 6.58366 6.16881 1 1
227 1 14.2636 16.0385 1.74909 4.166 2.52972 3.81818 1 1
228 1 14.2629 14.2629 0 0 0 0 1 3
229 1 16.0457 16.0457 0 0 0 0 1 3
230 1 15.1543 15.1543 0.891429 0 0 0 1 2
231 1 15.1388 16.9539 2.66584 -3.08845 3.22596 0.27214 1 1
232 1 16.9281 15.1373 2.68278 3.63927 -6.83079 -10.982 1 1
233 1 16.9371 16.9371 0.891429 0 0 0 1 2
234 1 17.8046 16.0155 1.82436 -2.43961 5.37764 1.49061 1 1
235 1 17.8286 14.2629 0 0 0 0 1 3
236 1 19.6114 16.0457 0 0 0 0 1 3
237 1 18.72 15.1543 0.891429 0 0 0 1 2
238 1 18.6736 16.9204 2.69959 -9.1611 -2.9815 0.908669 1 1
239 1 20.5303 15.1608 2.63982 -2.42948 6.1416 10.719 1 1
240 1 20.5029 16.9371 0.891429 0 0 0 1 2
241 1 19.6107 17.8276 1.78185 1.33527 4.01791 -3.49191 1 1
242 1 1.77102 17.8007 1.76786 -1.89399 3.48722 3.68754 1 1
243 1 0 17.8286 0 0 0 0 1 3
244 1 1.78286 19.6114 0 0 0 0 1 3
245 1 0.891429 18.72 0.891429 0 0 0 1 2
246 1 0.933021 20.5251 2.64292 3.7738 -3.41139 -1.93357 1 1
247 1 2.66185 18.7056 2.65275 -8.9378 -1.82849 1.28349 1 1
248 1 2.67429 20.5029 0.891429 0 0 0 1 2
249 1 3.59112 19.6106 1.76546 -1.94763 3.87337 8.03936 1 1
250 1 21.3676 19.6085 1.79348 0.892895 -0.110124 -5.77348 1 1
251 1 5.35869 21.3774 1.75107 -3.54781 7.07042 -5.32834 1 1
252 1 3.56572 17.8286 0 0 0 0 1 3
253 1 5.34857 19.6114 0 0 0 0 1 3
254 1 4.45714 18.72 0.891429 0 0 0 1 2
255 1 4.40966 20.4734 2.67328 4.22264 -3.52274 0.085735 1 1
256 1 6.17932 18.7485 2.66331 -6.30319 -7.18969 -4.81948 1 1
257 1 6.24 20.5029 0.891429 0 0 0 1 2
258 1 7.11553 19.6515 1.78222 -7.56637 -4.98487 -3.55051 1 1
259 1 7.13143 17.8286 0 0 0 0 1 3
260 1 8.02286 18.72 0.891429 0 0 0 1 2
261 1 8.00115 20.5331 2.67038 -5.16416 -0.696345 1.4723 1 1
262 1 8.91429 19.6114 0 0 0 0 1 3
263 1 9.81271 18.7371 2.69792 0.487025 -2.65185 -2.63869 1 1
264 1 9.80572 20.5029 0.891429 0 0 0 1 2
265 1 10.6858 19.6053 1.76924 -3.57894 4.01441 -7.39926 1 1
266 1 12.5231 -0.0164414 1.76134 7.60057 -2.20666 3.43604 1 1
267 1 10.6971 17.8286 0 0 0 0 1 3
268 1 12.48 19.6114 0 0 0 0 1 3
269 1 11.5886 18.72 0.891429 0 0 0 1 2
270 1 11.5705 20.5226 2.65859 1.73696 2.62887 -4.96856 1 1
271 1 13.3641 18.7614 2.73316 5.44131 -7.20607 -0.329494 1 1
272 1 13.3714 20.5029 0.891429 0 0 0 1 2
273 1 14.2561 19.625 1.77103 1.49791 -3.02863 -4.88471 1 1
274 1 16.0634 17.8634 1.77218 1.80359 -7.98283 -0.148704 1 1
275 1 14.2629 17.8286 0 0 0 0 1 3
276 1 16.0457 19.6114 0 0 0 0 1 3
277 1 15.1543 18.72 0.891429 0 0 0 1 2
278 1 15.1635 20.5076 2.64759 1.38291 -1.50206 -11.7574 1 1
279 1 16.9215 18.7333 2.6817 -1.2621 -1.36785 -5.34065 1 1
280 1 16.9371 20.5029 0.891429 0 0 0 1 2
281 1 19.5691 0.029995 1.80806 -6.72914 -6.51825 -2.21195 1 1
282 1 17.8741 19.6019 1.80737 -2.75527 2.11691 1.77186 1 1
283 1 17.8286 17.8286 0 0 0 0 1 3
284 1 19.6114 19.6114 0 0 0 0 1 3
285 1 18.72 18.72 0.891429 0 0 0 1 2
286 1 18.7208 20.523 2.6741 -2.04778 1.83979 -3.87609 1 1
287 1 20.5442 18.6842 2.65657 -0.0297514 -1.45742 -3.53948 1 1
288 1 20.5029 20.5029 0.891429 0 0 0 1 2
289 1 1.75157 1.79914 3.59985 -2.61619 0.911456 -2.05714 1 1
290 1 0.856098 0.894776 4.45708 -3.04926 -0.580223 2.04698 1 1
291 1 2.64971 2.66956 4.45662 -1.53791 -0.793978 -5.88807 1 1
292 1 1.7556 21.3509 5.34516 3.28027 -1.41679 -10.1645 1 1
293 1 1.74887 3.58935 5.33225 7.23918 -6.72954 -3.7908 1 1
294 1 21.384 1.81356 5.40428 3.50483 5.69975 -3.26194 1 1
295 1 0.0123236 0.0486694 3.5525 -7.17718 -9.37969 2.58625 1 1
296 1 3.5766 1.7643 5.35938 -1.13737 10.9134 -2.03049 1 1
297 1 5.35869 1.79158 3.55355 4.16146 -11.366 -0.392466 1 1
298 1 4.44075 0.88262 4.45924 1.8869 -1.22222 1.93597 1 1
299 1 6.26259 0.902436 6.25116 1.61528 7.64904 -0.952282 1 1
300 1 6.27845 2.70293 4.48487 -4.20157 -6.44483 -1.27271 1 1
301 1 3.53965 -0.0237406 3.53095 4.08162 -10.4427 -6.46189 1 1
302 1 7.13997 21.4018 3.62001 -1.07974 3.86765 5.23556 1 1
303 1 5.30466 -0.00284907 5.32649 0.599142 -0.944868 -9.58049 1 1
304 1 7.17019 3.59272 3.55813 -0.79254 1.4734 0.612625 1 1
305 1 7.15583 1.7904 5.39465 3.15344 5.05609 4.22144 1 1
306 1 8.91302 1.79985 3.57911 -4.18141 5.18123 0.576977 1 1
307 1 8.04956 0.915108 4.482 -3.38096 3.30406 4.98314 1 1
308 1 8.0806 2.71059 6.24994 0.51104 -5.37189 0.261286 1 1
309 1 9.82041 0.938484 6.26355 -6.85998 11.4062 1.15937 1 1
310 1 9.79884 2.70559 4.50547 1.63445 4.63951 -3.86293 1 1
311 1 10.7217 1.84117 5.3675 -1.33486 0.892689 -4.8684 1 1
312 1 12.4726 1.79076 3.57795 1.29487 0.760822 0.57072 1 1
313 1 11.5836 0.91452 4.43862 -0.169909 -1.02551 -0.161591 1 1
314 1 11.6042 2.73686 6.25041 7.0479 -0.0982935 1.18741 1 1
315 1 13.3668 2.68747 4.41634 5.61238 -1.61682 3.12774 1 1
316 1 13.3784 0.904394 6.26733 0.960114 5.25392 7.59521 1 1
317 1 12.5398 3.55718 5.35438 -5.79128 -10.6782 5.54289 1 1
318 1 14.2707 1.84702 5.37537 -7.54059 5.6775 -4.1291 1 1
319 1 12.4625 21.4034 5.34574 -2.83723 3.5657 2.89418 1 1
320 1 14.2486 3.54848 3.57379 -2.75809 6.13368 0.734042 1 1
321 1 16.0619 1.79791 3.63404 -3.07594 -5.01982 6.67964 1 1
322 1 15.138 0.925585 4.4865 -0.414265 -5.97838 -1.80869 1 1
323 1 15.113 2.67662 6.3204 3.61598 6.87514 -0.324027 1 1
324 1 16.8943 2.65745 4.5247 -0.397409 0.776837 0.626016 1 1
325 1 17.8269 1.77734 5.39417 -5.41945 6.62331 0.321995 1 1
326 1 16.0222 0.049242 5.3767 -1.97718 -6.17161 2.67426 1 1
327 1 19.6331 1.80168 3.55227 3.20877 -6.03332 -3.50625 1 1
328 1 18.7524 0.907623 4.49141 -0.321634 -10.3877 3.91171 1 1
329 1 20.4757 2.65727 4.44527 3.16379 13.3932 -6.95798 1 1
330 1 17.8293 0.035272 3.58895 -8.75263 -4.5466 0.639577 1 1
331 1 19.6181 0.029317 5.40579 2.68699 1.82216 1.67953 1 1
332 1 21.4091 3.53847 3.56083 2.70203 -6.09859 6.97691 1 1
333 1 1.76173 5.36315 3.58459 4.15379 -1.90532 -1.69913 1 1
334 1 0.868092 4.4682 4.46609 -1.45947 10.0369 0.932291 1 1
335 1 2.6496 4.48018 6.23569 -2.86308 4.17955 1.27686 1 1
336 1 2.71323 6.29202 4.49602 -1.61384 -2.62894 1.61057 1 1
337 1 3.53131 3.55865 3.54315 2.45056 3.49379 -0.291168 1 1
338 1 0.00855255 5.37291 5.35607 -4.13915 -4.77331 -6.65276 1 1
339 1 3.56391 5.38218 5.36129 -8.50001 0.199887 2.10404 1 1
340 1 5.30107 3.55379 5.33034 -10.9007 5.979 -0.320829 1 1
341 1 5.30213 5.3581 3.54574 -5.6296 0.475025 1.99802 1 1
342 1 4.38966 4.48879 4.44188 9.00869 2.35792 -4.87096 1 1
343 1 4.42512 6.22531 6.25301 -0.708995 -3.33302 2.54977 1 1
344 1 6.18671 6.2021 4.47909 4.98288 0.929613 3.34802 1 1
345 1 7.09584 5.33989 5.34201 3.25266 4.40099 -1.24869 1 1
346 1 5.32444 7.13124 5.36743 -0.885206 -7.18564 -0.0259022 1 1
347 1 6.24634 4.44064 6.22917 6.33619 3.13312 2.03323 1 1
348 1 8.91811 3.56634 5.3797 -0.228189 -0.722838 -7.48955 1 1
349 1 10.699 3.60105 3.6127 -9.24994 1.60719 -3.257 1 1
350 1 8.9216 5.30981 3.56738 -2.33961 -3.97501 -6.43638 1 1
351 1 8.03653 4.42923 4.44135 -0.227809 -0.00203029 -1.33597 1 1
352 1 8.0151 6.20577 6.25525 -1.6113 -1.0584 -2.90129 1 1
353 1 9.78107 4.48115 6.2772 -0.490088 -1.53053 0.0971845 1 1
354 1 9.81743 6.20641 4.47025 -0.792909 -3.12834 -9.442 1 1
355 1 10.7249 5.34069 5.39375 2.23924 -9.98384 -1.18799 1 1
356 1 12.4148 5.37436 3.56484 -1.08244 -1.53166 -8.97279 1 1
357 1 11.6189 4.4471 4.50917 4.09071 -4.94679 7.02156 1 1
358 1 13.3586 6.1997 4.47887 1.02905 -3.38659 -2.14039 1 1
359 1 14.2489 5.31442 5.40861 3.92483 2.78674 3.68968 1 1
360 1 16.0372 3.56246 5.41556 2.65609 -5.42956 -0.253217 1 1
361 1 17.7917 3.59919 3.60449 0.413104 4.59827 -3.30747 1 1
362 1 16.0402 5.30549 3.57252 3.04858 6.10402 -2.96263 1 1
363 1 15.113 4.42956 4.48702 5.68424 9.9255 -11.1173 1 1
364 1 16.92 6.15853 4.46743 9.85381 2.47632 -0.389557 1 1
365 1 16.9304 4.5008 6.27752 6.91028 -2.75037 0.527529 1 1
366 1 16.0797 7.08348 5.36806 -4.56681 5.95483 -8.1475 1 1
367 1 15.1838 6.20641 6.27359 4.26672 -0.174759 0.806924 1 1
368 1 19.5776 3.54733 5.37251 -1.22323 -6.02593 2.0853 1 1
369 1 17.8255 5.30876 5.38055 4.87114 -1.58004 -2.62662 1 1
370 1 19.6294 5.33258 3.58426 -9.56524 -3.9112 1.57195 1 1
371 1 18.7315 4.48611 4.47535 0.664926 -2.40859 -5.64582 1 1
372 1 20.5098 4.45609 6.25303 0.464972 -2.09485 -8.98944 1 1
373 1 20.5331 6.25249 4.43079 -3.88184 0.898716 4.97886 1 1
374 1 19.6555 7.15876 5.37591 -3.39061 3.53531 -3.42052 1 1
375 1 0.0012947 7.10662 3.56166 -1.71567 0.145434 -4.76901 1 1
376 1 1.77195 7.13757 5.31699 -0.423406 0.80891 -5.72559 1 1
377 1 1.80848 8.92681 3.52516 -3.10454 2.60604 -11.2024 1 1
378 1 0.896753 8.02278 4.45092 -0.470478 -4.01437 -2.09602 1 1
379 1 2.65476 8.06093 6.27595 1.28323 -1.68892 2.36614 1 1
380 1 0.890207 9.77949 6.23208 -1.15753 -2.44137 1.82445 1 1
381 1 2.62951 9.79493 4.46329 0.987228 -3.117 4.79997 1 1
382 1 21.4116 8.88942 5.37342 7.01356 5.39742 -4.09397 1 1
383 1 1.77574 10.7353 5.29381 -1.03789 0.214878 -5.69594 1 1
384 1 3.58331 7.1717 3.60873 1.21635 8.25514 4.86521 1 1
385 1 7.16542 7.09461 3.61909 5.09185 4.27729 5.98023 1 1
386 1 3.58627 10.6961 3.53378 2.22755 -3.4522 2.31422 1 1
387 1 3.5622 8.95752 5.34032 4.49555 0.575017 -2.52674 1 1
388 1 5.31742 8.93014 3.58698 -3.00848 -11.4847 -3.76819 1 1
389 1 4.41831 8.02715 4.5267 -4.54364 4.58713 -12.6481 1 1
390 1 4.46893 9.84741 6.24246 3.37422 -0.118914 -2.71451 1 1
391 1 6.25987 9.82765 4.47911 1.55923 2.03337 -3.16121 1 1
392 1 8.91123 7.11381 5.38936 5.72595 1.62163 0.234976 1 1
393 1 7.11867 8.88841 5.32834 -3.718 -4.78938 -2.84587 1 1
394 1 8.87701 8.89764 3.59123 -13.1409 3.28647 -1.64224 1 1
395 1 8.01566 8.00208 4.51294 3.6809 -1.90121 -1.75321 1 1
396 1 9.76111 9.81574 4.43666 0.328296 -2.09938 -8.77749 1 1
397 1 10.6852 8.91749 5.35132 6.2506 1.19405 -4.09097 1 1
398 1 10.6671 10.7163 3.58293 0.399426 -7.64648 -0.691221 1 1
399 1 9.83357 8.03121 6.2623 4.89243 2.53893 6.77635 1 1
400 1 12.4269 7.0944 5.30192 -4.576 1.18604 -2.43948 1 1
401 1 10.6924 7.11045 3.6102 3.43005 1.94436 -4.00403 1 1
402 1 12.4041 8.93551 3.59813 0.260961 -0.172935 -4.46665 1 1
403 1 11.5797 8.02459 4.4584 2.49473 3.23025 1.93247 1 1
404 1 13.3455 9.827 4.48675 3.25792 3.75119 -4.80488 1 1
405 1 14.232 7.09798 3.63859 2.44624 11.1939 3.80423 1 1
406 1 14.2704 8.92372 5.40459 -5.9042 -4.33785 -9.44935 1 1
407 1 17.8639 7.04593 3.58804 0.226481 0.61584 -13.1925 1 1
408 1 16.0818 8.87866 3.59625 1.3998 9.57378 5.47269 1 1
409 1 15.1611 7.99451 4.49007 1.0041 -4.89911 -5.76004 1 1
410 1 16.9899 9.82366 4.4937 8.69946 -0.632029 2.64865 1 1
411 1 16.0144 10.699 5.34269 0.991029 3.49772 -5.40331 1 1
412 1 17.0019 7.99353 6.2886 7.46226 4.83474 -1.05489 1 1
413 1 17.9046 8.9142 5.3673 -7.59715 0.21662 -9.92932 1 1
414 1 19.6106 8.91718 3.55946 0.0391968 -3.19602 -4.15106 1 1
415 1 18.7661 7.98582 4.47823 2.07119 -5.17813 -6.12583 1 1
416 1 18.7472 9.73573 6.27078 -3.81713 -3.75365 1.84557 1 1
417 1 20.5573 9.77626 4.50434 -0.445508 1.95072 -9.9037 1 1
418 1 20.5276 8.04665 6.28607 6.0555 0.011984 0.366645 1 1
419 1 19.6384 10.6248 5.39823 3.93556 -0.353345 -2.99414 1 1
420 1 21.4276 10.6127 3.57522 11.6936 6.70791 -8.48962 1 1
421 1 1.76565 12.4843 3.60252 -0.0919903 -7.21245 -2.12967 1 1
422 1 0.882552 11.604 4.43712 -0.269263 -0.199801 2.67967 1 1
423 1 2.64062 11.5926 6.172 -4.72395 -3.4049 2.52974 1 1
424 1 0.904997 13.3479 6.23592 -5.47968 -1.98732 -0.622389 1 1
425 1 2.68518 13.3363 4.4528 -1.27868 -1.30809 -10.3522 1 1
426 1 21.3888 12.4968 5.33666 2.13339 -3.22219 10.5222 1 1
427 1 5.38312 10.7295 5.35978 0.801859 2.23712 -1.59484 1 1
428 1 3.56924 14.2258 3.52043 -0.56268 4.60677 0.20371 1 1
429 1 3.57209 12.5031 5.32751 -3.19195 5.68027 7.51993 1 1
430 1 5.38475 12.4523 3.49819 -1.98144 1.63922 2.60083 1 1
431 1 4.46871 11.5869 4.43541 -1.01784 -2.11698 1.98467 1 1
432 1 6.19684 13.3823 4.45959 -0.0307165 -0.00556834 6.05378 1 1
433 1 7.0899 14.2868 3.55386 -1.59938 0.402467 -1.75501 1 1
434 1 6.21632 11.6386 6.26835 5.64876 -6.45656 0.584735 1 1
435 1 7.14051 10.7707 3.55091 9.01186 4.30699 4.83324 1 1
436 1 7.15687 12.571 5.32892 0.277296 -3.14286 0.299059 1 1
437 1 8.90306 10.7276 5.35013 4.00455 -1.18969 5.69421 1 1
438 1 8.969 12.4756 3.57797 -1.29412 -1.12519 3.94557 1 1
439 1 7.98884 11.6372 4.43426 2.16527 -2.20286 -9.26827 1 1
440 1 9.76698 11.5849 6.27797 1.59523 -4.4527 2.6746 1 1
441 1 8.04307 13.3587 6.29577 -3.42362 -2.26716 -0.841463 1 1
442 1 9.82384 13.4157 4.45798 -3.70509 3.78267 10.8469 1 1
443 1 10.6777 14.3091 3.56454 3.23783 1.09062 3.12477 1 1
444 1 12.4597 10.7352 5.37543 6.4002 -0.526636 -3.28134 1 1
445 1 10.6528 12.5182 5.38958 -1.42627 5.91337 -14.3201 1 1
446 1 12.4682 12.5003 3.60361 -1.02937 -1.27211 2.40409 1 1
447 1 11.5148 11.6375 4.46464 -10.8636 -10.056 -3.05761 1 1
448 1 13.3993 11.5778 6.27616 -6.96731 -0.617568 4.01071 1 1
449 1 11.5996 13.3638 6.28291 -0.387708 4.13628 -9.10418 1 1
450 1 13.3596 13.3695 4.47929 2.74607 4.04675 -3.51018 1 1
451 1 14.2128 10.6849 3.5864 -4.17917 -1.63361 -5.67283 1 1
452 1 14.2899 12.4793 5.37881 -9.56576 1.42744 -5.48923 1 1
453 1 16.0481 12.4485 3.61566 -3.59134 5.6328 -3.66394 1 1
454 1 15.1207 11.5939 4.48802 -4.17121 7.24069 -5.22167 1 1
455 1 16.9539 11.5754 6.25253 2.51426 4.49191 1.60672 1 1
456 1 16.8846 13.3305 4.48669 0.150974 6.83364 0.387795 1 1
457 1 17.7745 12.4427 5.34611 0.960823 -0.813667 -1.54143 1 1
458 1 15.165 13.3857 6.22776 -0.341424 -2.34312 5.54645 1 1
459 1 17.8336 10.6696 3.57268 2.02573 -4.51798 -8.89975 1 1
460 1 19.6287 12.4499 3.60992 8.05978 -2.12606 -1.95519 1 1
461 1 18.7088 11.5854 4.47658 -6.13307 0.254005 -3.98089 1 1
462 1 18.6939 13.3251 6.24527 -2.12579 0.608956 -1.80658 1 1
463 1 20.5444 13.3696 4.46623 4.09441 -2.27367 -4.91725 1 1
464 1 20.5065 11.5572 6.27432 3.28232 -5.90119 1.57661 1 1
465 1 1.78937 14.2652 5.33939 -0.280479 3.24825 -7.05214 1 1
466 1 1.79395 16.0336 3.55827 3.90574 10.78 -4.77267 1 1
467 1 0.871039 15.1868 4.46004 -4.71263 -1.46237 -2.63026 1 1
468 1 2.69672 15.1456 6.24751 0.573829 6.11171 0.505729 1 1
469 1 2.67206 16.9256 4.43478 1.21065 -2.99387 5.01721 1 1
470 1 21.3573 16.0035 5.30281 1.95697 1.73291 -0.587631 1 1
471 1 21.4028 14.2724 3.53953 5.58014 -1.76314 -1.39353 1 1
472 1 1.72989 17.809 5.34974 -4.9532 -11.1976 0.0736586 1 1
473 1 5.3138 14.3158 5.37836 3.8529 -4.92627 0.585895 1 1
474 1 3.58274 16.0282 5.32527 5.18448 -1.19405 -0.705416 1 1
475 1 5.31254 16.0052 3.57291 -2.31067 -3.89121 4.11684 1 1
476 1 4.4424 15.124 4.41829 -6.42196 -1.4896 0.841888 1 1
477 1 4.46712 16.9151 6.24267 0.0523411 5.43663 4.67153 1 1
478 1 6.20218 15.2148 6.27533 -0.557648 -5.14505 -1.54621 1 1
479 1 6.21253 16.9158 4.44953 5.01859 -3.98624 -2.37623 1 1
480 1 7.08474 16.0417 5.3921 -2.75645 -1.93698 -1.94388 1 1
481 1 8.87819 14.2609 5.35896 -1.05216 -0.729819 8.45995 1 1
482 1 8.86658 16.0462 3.60603 -2.37351 2.54438 -3.67439 1 1
483 1 7.99977 15.1494 4.51074 -9.91682 -1.65222 -2.13415 1 1
484 1 8.0503 16.9393 6.28502 5.86425 5.07214 1.16114 1 1
485 1 9.76274 15.1535 6.2687 4.04898 -0.489771 -1.26631 1 1
486 1 9.76342 16.9335 4.50748 -3.9699 -2.23232 1.96895 1 1
487 1 10.6599 16.0908 5.40105 3.9342 0.622764 1.54854 1 1
488 1 8.88663 17.8085 5.39608 3.0036 1.33194 -0.410064 1 1
489 1 10.6789 17.8463 3.55272 0.331439 -1.87319 -3.58104 1 1
490 1 12.452 14.2861 5.39337 6.49196 3.90196 -3.01354 1 1
491 1 12.4693 16.0615 3.5418 -2.47696 3.75209 1.02253 1 1
492 1 11.5188 15.1952 4.49873 1.89153 -2.74809 -1.21093 1 1
493 1 11.565 16.935 6.2499 4.14745 -0.656797 0.151101 1 1
494 1 13.3513 16.9667 4.42617 -1.54388 5.01062 -2.34309 1 1
495 1 13.3899 15.1387 6.2345 -10.4553 -0.951766 -2.57341 1 1
496 1 12.4473 17.8015 5.341 1.54505 -7.98213 -3.09009 1 1
497 1 14.2268 14.2449 3.57955 -1.43502 2.22659 -1.75178 1 1
498 1 16.0129 14.2634 5.35571 1.49978 1.66114 -4.46023 1 1
499 1 17.8208 14.2056 3.6112 -3.15054 -5.99031 -2.20641 1 1
500 1 14.2885 16.0467 5.33494 -1.09963 -1.4416 2.05571 1 1
501 1 14.3143 17.8756 3.5901 -7.24371 -1.85611 0.221619 1 1
502 1 16.0249 16.0142 3.58241 8.29916 -2.08963 -2.42421 1 1
503 1 15.1331 15.1602 4.43772 1.46009 -0.825323 -3.5331 1 1
504 1 16.9078 16.9519 4.48126 7.79224 0.125004 4.25215 1 1
505 1 16.9259 15.1535 6.23969 -0.571221 2.62313 0.740911 1 1
506 1 17.8166 16.0341 5.33167 0.250478 -7.8938 -5.54645 1 1
507 1 19.6146 14.1941 5.32515 -3.92897 3.92224 -4.35062 1 1
508 1 19.6039 16.0257 3.53135 1.97934 -6.79953 -2.6321 1 1
509 1 18.7209 15.1007 4.45745 -0.582574 -3.76472 5.96342 1 1
510 1 20.5092 16.9268 4.42697 -0.919212 1.12074 -1.33258 1 1
511 1 19.5789 17.832 5.34882 -3.27134 0.702856 2.22428 1 1
512 1 20.4869 15.1444 6.21566 -2.8677 -3.04218 1.98611 1 1
513 1 1.79583 19.6084 3.51615 6.28827 0.0564059 -0.143153 1 1
514 1 0.928025 18.7177 4.40484 -1.95828 7.09843 9.94747 1 1
515 1 0.888528 20.5248 6.23017 -4.875 1.09829 -1.73939 1 1
516 1 2.66178 20.4433 4.44486 -7.0815 0.940133 -5.48034 1 1
517 1 0.0112692 17.8398 3.56572 -0.0865171 0.161523 -3.94001 1 1
518 1 21.4155 19.6042 5.3458 5.91097 0.277473 0.110715 1 1
519 1 2.65104 18.703 6.26073 10.1602 -7.88025 -0.43186 1 1
520 1 5.34175 17.7712 5.36829 -2.51216 4.17241 -1.05216 1 1
521 1 3.55852 17.8105 3.60649 -1.91876 1.53809 -3.12698 1 1
522 1 3.51269 19.6081 5.38162 -1.70226 -3.29237 6.46013 1 1
523 1 5.33257 19.6023 3.54761 4.73578 -2.17662 -2.80786 1 1
524 1 4.44312 18.6899 4.4449 3.75016 7.5158 -5.53734 1 1
525 1 4.40884 20.4914 6.20466 9.0849 1.18009 -0.154422 1 1
526 1 6.19896 18.6831 6.27511 -3.34639 -0.754722 -3.2715 1 1
527 1 6.22822 20.4963 4.48546 10.7012 -6.34746 -8.87723 1 1
528 1 7.07403 17.8005 3.61178 -3.48307 -8.88568 5.11868 1 1
529 1 7.07178 19.5971 5.395 -8.01318 -3.87181 1.43034 1 1
530 1 8.9039 0.05315 5.42202 -1.37079 -2.05352 -4.57641 1 1
531 1 8.9298 19.6563 3.61108 -5.57375 -6.68811 2.50763 1 1
532 1 7.97831 18.7161 4.49664 -7.65664 3.50021 -6.40735 1 1
533 1 7.99559 20.5264 6.27458 6.69235 -4.738 -9.04613 1 1
534 1 9.78375 18.716 6.2363 3.18819 1.03813 -11.301 1 1
535 1 9.84296 20.4906 4.52458 1.12831 0.580555 -1.64793 1 1
536 1 10.6781 19.5907 5.40249 6.48766 1.40732 -5.30138 1 1
537 1 10.7066 -0.00919723 3.56084 -2.2041 -2.47716 4.93325 1 1
538 1 12.4908 19.6313 3.62175 -10.9566 -2.83487 -10.1065 1 1
539 1 11.5371 18.7537 4.46425 7.74128 -3.60098 -2.93511 1 1
540 1 13.386 18.6731 6.22546 3.37677 2.48447 3.44627 1 1
541 1 13.3567 20.5146 4.50708 -5.88742 2.43749 -1.48964 1 1
542 1 16.0964 17.8649 5.37071 0.160512 -4.41778 -6.35187 1 1
543 1 14.2246 0.00730042 3.56323 2.66089 -0.0939156 -6.81104 1 1
544 1 14.2457 19.6086 5.38734 -2.52221 -7.88184 -0.604588 1 1
545 1 16.0786 19.6344 3.59086 1.54929 -0.733967 -5.82138 1 1
546 1 15.1717 18.7481 4.44054 1.53903 3.97959 3.21031 1 1
547 1 16.9317 18.7934 6.2169 0.541618 3.08031 3.90062 1 1
548 1 16.9574 20.5448 4.45424 0.106438 0.430289 -2.50575 1 1
549 1 17.79 19.6166 5.3375 2.23047 -2.38283 0.158805 1 1
550 1 17.787 17.8485 3.57595 3.72909 -1.78007 -4.70034 1 1
551 1 19.5975 19.6115 3.55463 8.4051 2.97925 -0.922707 1 1
552 1 18.7005 18.7144 4.43716 1.6221 -5.39655 -3.12466 1 1
553 1 18.6994 20.487 6.24492 -6.87209 4.95912 -5.00224 1 1
554 1 20.4896 18.7158 6.24821 -2.6178 10.663 2.06063 1 1
555 1 20.5303 20.504 4.48411 0.281541 12.0652 -1.93789 1 1