ITEM: TIMESTEP
950
ITEM: NUMBER OF ATOMS
2952
ITEM: BOX BOUNDS pp pp mm
0.0000000000000000e+00 2.1394294200000001e+01
0.0000000000000000e+00 2.1394294200000001e+01
-4.4571446250000002e-01 5.3485735500000004e+01
ITEM: ATOMS id type x y z vx vy vz v_is_diamond c_structure_type
1 1 0 0 0 0 0 0 1 3
2 1 1.78286 1.78286 0 0 0 0 1 3
3 1 0.891429 0.891429 0.891429 0 0 0 1 2
4 1 0.898676 2.67921 2.71747 3.85479 -2.55231 2.11017 1 1
5 1 2.70206 0.874607 2.69865 7.36762 -6.10532 0.762216 1 1
6 1 2.67429 2.67429 0.891429 0 0 0 1 2
7 1 0.00293119 1.75837 1.79834 -8.14749 11.8593 -11.3544 1 1
8 1 1.76942 21.3746 1.81335 -5.23329 -1.07784 4.43864 1 1
9 1 1.79129 3.58243 1.76526 -0.176296 5.36561 -1.95681 1 1
10 1 3.57585 1.79716 1.80052 -3.69241 2.80182 4.29396 1 1
11 1 3.56572 0 0 0 0 0 1 3
12 1 5.34857 1.78286 0 0 0 0 1 3
13 1 4.45714 0.891429 0.891429 0 0 0 1 2
14 1 4.45281 2.64276 2.69338 -6.71972 8.51509 -0.185604 1 1
15 1 6.25283 0.908727 2.68169 -4.05598 1.45977 4.97047 1 1
16 1 6.24 2.67429 0.891429 0 0 0 1 2
17 1 7.14101 1.78607 1.77417 -9.0078 3.22711 -4.95854 1 1
18 1 7.13143 0 0 0 0 0 1 3
19 1 8.02286 0.891429 0.891429 0 0 0 1 2
20 1 8.05778 2.6665 2.70191 -2.80187 -1.65747 -3.17327 1 1
21 1 8.91429 1.78286 0 0 0 0 1 3
22 1 9.82723 0.900471 2.75447 0.613326 -3.8855 -6.32782 1 1
23 1 9.80572 2.67429 0.891429 0 0 0 1 2
24 1 8.93531 0.0348134 1.77707 5.26736 -5.60914 -6.02419 1 1
25 1 10.6742 1.7637 1.82043 -8.41999 2.91299 2.11558 1 1
26 1 10.6971 0 0 0 0 0 1 3
27 1 12.48 1.78286 0 0 0 0 1 3
28 1 11.5886 0.891429 0.891429 0 0 0 1 2
29 1 11.5511 2.67915 2.73517 2.61018 -0.737648 2.10357 1 1
30 1 13.391 0.886924 2.7362 -7.81732 2.75636 6.45111 1 1
31 1 13.3714 2.67429 0.891429 0 0 0 1 2
32 1 14.2471 1.78215 1.80331 4.61089 -6.02581 3.79895 1 1
33 1 14.2629 0 0 0 0 0 1 3
34 1 16.0457 1.78286 0 0 0 0 1 3
35 1 15.1543 0.891429 0.891429 0 0 0 1 2
36 1 15.1543 2.71237 2.69024 -3.87247 -6.11702 2.62886 1 1
37 1 16.9185 0.884759 2.69299 5.55115 -3.97278 -1.97733 1 1
38 1 16.9371 2.67429 0.891429 0 0 0 1 2
39 1 16.0274 0.0105323 1.82288 -0.334775 -1.49682 -1.51358 1 1
40 1 17.8129 1.79105 1.77824 -0.0442223 0.721201 6.36736 1 1
41 1 17.8286 0 0 0 0 0 1 3
42 1 19.6114 1.78286 0 0 0 0 1 3
43 1 18.72 0.891429 0.891429 0 0 0 1 2
44 1 18.7333 2.70253 2.75266 -6.1995 -4.67229 3.8263 1 1
45 1 20.4647 0.898545 2.68496 -2.1571 3.90081 0.0222714 1 1
46 1 20.5029 2.67429 0.891429 0 0 0 1 2
47 1 0 3.56572 0 0 0 0 1 3
48 1 1.78286 5.34857 0 0 0 0 1 3
49 1 0.891429 4.45714 0.891429 0 0 0 1 2
50 1 0.920093 6.25065 2.69124 -0.941248 -4.36106 -1.99593 1 1
51 1 2.68434 4.48915 2.68706 1.87398 4.17256 7.99103 1 1
52 1 2.67429 6.24 0.891429 0 0 0 1 2
53 1 3.58675 5.33917 1.7583 1.77331 -2.23542 -2.06539 1 1
54 1 5.35845 3.55224 1.82178 -0.924447 -2.2544 7.17785 1 1
55 1 3.56572 3.56572 0 0 0 0 1 3
56 1 5.34857 5.34857 0 0 0 0 1 3
57 1 4.45714 4.45714 0.891429 0 0 0 1 2
58 1 4.43738 6.24243 2.67495 -2.82386 -5.58494 -0.314516 1 1
59 1 6.26113 4.50282 2.68552 -8.49391 4.70643 -1.84107 1 1
60 1 6.24 6.24 0.891429 0 0 0 1 2
61 1 5.3556 7.14415 1.79426 6.16745 6.80619 1.45758 1 1
62 1 7.14929 5.3653 1.77793 3.67372 2.34256 1.68957 1 1
63 1 7.13143 3.56572 0 0 0 0 1 3
64 1 8.9381 3.5807 1.83704 -3.8968 -6.35781 3.75344 1 1
65 1 8.02286 4.45714 0.891429 0 0 0 1 2
66 1 8.05794 6.27663 2.69239 -0.260334 4.82381 -5.11077 1 1
67 1 8.91429 5.34857 0 0 0 0 1 3
68 1 9.8258 4.48201 2.68265 6.69837 -0.0736629 6.69076 1 1
69 1 9.80572 6.24 0.891429 0 0 0 1 2
70 1 10.731 5.32007 1.78442 5.08153 3.48671 -2.01162 1 1
71 1 12.4518 3.55257 1.79329 2.4104 -6.4135 -5.76614 1 1
72 1 10.6971 3.56572 0 0 0 0 1 3
73 1 12.48 5.34857 0 0 0 0 1 3
74 1 11.5886 4.45714 0.891429 0 0 0 1 2
75 1 11.5857 6.2272 2.7154 -5.79886 0.0551255 7.36904 1 1
76 1 13.3636 4.40543 2.66159 -3.0798 -2.46181 -6.37705 1 1
77 1 13.3714 6.24 0.891429 0 0 0 1 2
78 1 14.2664 5.36135 1.7875 4.25158 -5.37759 -1.92097 1 1
79 1 16.053 3.58576 1.78152 3.19278 2.3563 4.3345 1 1
80 1 14.2629 3.56572 0 0 0 0 1 3
81 1 16.0457 5.34857 0 0 0 0 1 3
82 1 15.1543 4.45714 0.891429 0 0 0 1 2
83 1 15.1312 6.25836 2.71064 1.30496 4.95946 -6.76835 1 1
84 1 16.9561 4.48852 2.70466 4.37574 1.13609 7.4543 1 1
85 1 16.9371 6.24 0.891429 0 0 0 1 2
86 1 17.8107 5.41165 1.78426 6.9844 -4.01903 -5.1038 1 1
87 1 19.6224 3.57401 1.79067 -1.10925 1.00217 -0.425524 1 1
88 1 0.0258404 5.36787 1.78966 2.2966 -6.47293 5.17902 1 1
89 1 17.8286 3.56572 0 0 0 0 1 3
90 1 19.6114 5.34857 0 0 0 0 1 3
91 1 18.72 4.45714 0.891429 0 0 0 1 2
92 1 18.7504 6.27128 2.70468 6.23928 -5.15484 -3.227 1 1
93 1 20.4842 4.46713 2.74671 0.304364 0.361386 -6.00387 1 1
94 1 20.5029 6.24 0.891429 0 0 0 1 2
95 1 19.6253 7.15684 1.82081 -5.05232 3.86102 -5.77146 1 1
96 1 1.79839 7.12727 1.80944 0.915161 -4.10709 -0.72462 1 1
97 1 0 7.13143 0 0 0 0 1 3
98 1 0.891429 8.02286 0.891429 0 0 0 1 2
99 1 2.7066 7.99911 2.70999 -1.73831 -2.1506 -2.5233 1 1
100 1 1.78286 8.91429 0 0 0 0 1 3
101 1 0.893309 9.79315 2.68448 4.70088 -0.297041 1.68323 1 1
102 1 2.67429 9.80572 0.891429 0 0 0 1 2
103 1 1.77351 10.7081 1.78537 -4.32322 -3.03234 -4.64728 1 1
104 1 3.6086 8.89156 1.86204 3.42266 -1.27468 0.242783 1 1
105 1 3.56572 7.13143 0 0 0 0 1 3
106 1 4.45714 8.02286 0.891429 0 0 0 1 2
107 1 6.21576 8.07496 2.71419 3.99945 -5.06953 16.495 1 1
108 1 5.34857 8.91429 0 0 0 0 1 3
109 1 4.54451 9.83475 2.73713 -5.86818 -4.609 -0.324248 1 1
110 1 6.24 9.80572 0.891429 0 0 0 1 2
111 1 7.14518 8.90804 1.76541 3.43429 0.0409119 -3.27686 1 1
112 1 8.94386 7.13016 1.80823 -6.79585 -0.944705 -1.34935 1 1
113 1 7.13143 7.13143 0 0 0 0 1 3
114 1 8.02286 8.02286 0.891429 0 0 0 1 2
115 1 9.80525 8.02529 2.66113 -7.85116 -0.783622 -2.86771 1 1
116 1 8.06757 9.80324 2.69978 5.01977 -6.73558 -4.95167 1 1
117 1 8.91429 8.91429 0 0 0 0 1 3
118 1 9.80572 9.80572 0.891429 0 0 0 1 2
119 1 10.6959 8.93412 1.78036 2.52044 -6.11723 5.31626 1 1
120 1 12.5114 7.11177 1.81182 -3.1565 -2.206 0.0874167 1 1
121 1 10.6971 7.13143 0 0 0 0 1 3
122 1 11.5886 8.02286 0.891429 0 0 0 1 2
123 1 13.399 8.0507 2.70901 0.642263 2.08381 -2.46514 1 1
124 1 12.48 8.91429 0 0 0 0 1 3
125 1 11.6119 9.80605 2.72616 0.14182 -1.27249 4.59063 1 1
126 1 13.3714 9.80572 0.891429 0 0 0 1 2
127 1 12.4948 10.7398 1.81143 -1.59356 3.1168 -0.206278 1 1
128 1 16.0516 7.10489 1.78037 2.25602 5.90569 -3.97411 1 1
129 1 14.2704 8.91082 1.77653 -6.37324 -1.7199 1.98019 1 1
130 1 14.2629 7.13143 0 0 0 0 1 3
131 1 15.1543 8.02286 0.891429 0 0 0 1 2
132 1 16.9239 8.06939 2.66579 -4.60642 3.92683 4.02115 1 1
133 1 16.0457 8.91429 0 0 0 0 1 3
134 1 15.0841 9.84665 2.69728 -1.04797 1.77676 -3.14913 1 1
135 1 16.9371 9.80572 0.891429 0 0 0 1 2
136 1 16.0514 10.721 1.78194 2.12761 3.39281 4.33205 1 1
137 1 17.826 8.91612 1.79403 -1.15641 -3.52555 -1.12908 1 1
138 1 0.0364202 8.8822 1.76981 -0.311868 1.20557 3.17575 1 1
139 1 17.8286 7.13143 0 0 0 0 1 3
140 1 18.72 8.02286 0.891429 0 0 0 1 2
141 1 20.5168 8.02499 2.69684 1.89492 2.06718 -5.54848 1 1
142 1 19.6114 8.91429 0 0 0 0 1 3
143 1 18.7201 9.74602 2.69905 7.19914 4.83719 -9.66291 1 1
144 1 20.5029 9.80572 0.891429 0 0 0 1 2
145 1 0 10.6971 0 0 0 0 1 3
146 1 1.78286 12.48 0 0 0 0 1 3
147 1 0.891429 11.5886 0.891429 0 0 0 1 2
148 1 2.70212 11.5901 2.65709 -6.59232 9.75822 2.52119 1 1
149 1 0.912901 13.3469 2.68372 6.0388 4.59089 2.54522 1 1
150 1 2.67429 13.3714 0.891429 0 0 0 1 2
151 1 -0.0113809 12.4732 1.80643 -3.76898 8.18069 9.47296 1 1
152 1 5.37443 10.7172 1.81814 -7.23163 -0.847252 -3.81961 1 1
153 1 3.53463 12.4672 1.77581 2.52615 0.738035 6.11704 1 1
154 1 3.56572 10.6971 0 0 0 0 1 3
155 1 5.34857 12.48 0 0 0 0 1 3
156 1 4.45714 11.5886 0.891429 0 0 0 1 2
157 1 6.30267 11.6203 2.6932 -0.195332 -4.32691 5.68729 1 1
158 1 4.43204 13.385 2.70171 -1.26537 3.22844 0.774237 1 1
159 1 6.24 13.3714 0.891429 0 0 0 1 2
160 1 5.35837 14.2605 1.82956 5.36676 1.98288 -0.39899 1 1
161 1 8.92103 10.7021 1.84078 -0.486155 -1.48256 3.11154 1 1
162 1 7.12172 12.4822 1.7959 3.51015 -1.5226 -10.9188 1 1
163 1 7.13143 10.6971 0 0 0 0 1 3
164 1 8.02286 11.5886 0.891429 0 0 0 1 2
165 1 8.91429 12.48 0 0 0 0 1 3
166 1 9.79373 11.5866 2.73097 -1.81245 9.21314 -5.50338 1 1
167 1 8.01339 13.42 2.73457 -6.67197 -0.88022 -6.82915 1 1
168 1 9.80572 13.3714 0.891429 0 0 0 1 2
169 1 10.6664 12.4886 1.80674 4.43334 1.41546 -9.93551 1 1
170 1 10.6971 10.6971 0 0 0 0 1 3
171 1 12.48 12.48 0 0 0 0 1 3
172 1 11.5886 11.5886 0.891429 0 0 0 1 2
173 1 13.3887 11.5942 2.72755 -5.99911 -2.16055 -4.72274 1 1
174 1 11.5888 13.4039 2.7124 -1.31458 -0.314127 -10.6089 1 1
175 1 13.3714 13.3714 0.891429 0 0 0 1 2
176 1 12.4972 14.2678 1.77573 1.32667 -1.34337 1.58053 1 1
177 1 14.2949 12.5167 1.82542 -2.29986 7.50104 8.17224 1 1
178 1 14.2629 10.6971 0 0 0 0 1 3
179 1 16.0457 12.48 0 0 0 0 1 3
180 1 15.1543 11.5886 0.891429 0 0 0 1 2
181 1 16.9165 11.5948 2.73344 -1.80818 -4.2193 -1.00931 1 1
182 1 15.1847 13.4199 2.72546 4.40463 -0.024555 -0.187066 1 1
183 1 16.9371 13.3714 0.891429 0 0 0 1 2
184 1 17.8105 12.5027 1.80489 8.50325 -3.46349 -3.17795 1 1
185 1 19.6006 10.6706 1.82284 1.64722 -5.69329 2.9814 1 1
186 1 17.8286 10.6971 0 0 0 0 1 3
187 1 19.6114 12.48 0 0 0 0 1 3
188 1 18.72 11.5886 0.891429 0 0 0 1 2
189 1 20.5127 11.5973 2.68843 5.00394 -2.00331 1.63782 1 1
190 1 18.7614 13.3338 2.66647 1.07623 -3.1994 -8.9712 1 1
191 1 20.5029 13.3714 0.891429 0 0 0 1 2
192 1 19.6607 14.29 1.77816 3.23991 -3.33109 0.0286687 1 1
193 1 1.80011 14.2091 1.7759 -3.13355 1.62306 -1.72043 1 1
194 1 0 14.2629 0 0 0 0 1 3
195 1 1.78286 16.0457 0 0 0 0 1 3
196 1 0.891429 15.1543 0.891429 0 0 0 1 2
197 1 0.878876 16.9502 2.70763 3.56729 -3.56813 1.58108 1 1
198 1 2.6877 15.1471 2.67854 10.8981 -0.239171 -2.29572 1 1
199 1 2.67429 16.9371 0.891429 0 0 0 1 2
200 1 -0.0184954 16.0298 1.82296 -6.34437 3.01914 -7.5708 1 1
201 1 3.5941 16.0484 1.81557 7.82136 -5.28994 4.22862 1 1
202 1 3.56572 14.2629 0 0 0 0 1 3
203 1 5.34857 16.0457 0 0 0 0 1 3
204 1 4.45714 15.1543 0.891429 0 0 0 1 2
205 1 4.47231 16.9516 2.71247 3.24963 1.67113 2.41414 1 1
206 1 6.21269 15.1385 2.70318 11.21 -6.04119 1.49006 1 1
207 1 6.24 16.9371 0.891429 0 0 0 1 2
208 1 7.11256 16.0719 1.77341 -2.87984 1.33692 0.737476 1 1
209 1 5.33694 17.8571 1.78705 3.39576 7.17597 2.27929 1 1
210 1 8.88385 14.2658 1.8082 -4.22622 -3.16617 2.82973 1 1
211 1 7.13143 14.2629 0 0 0 0 1 3
212 1 8.02286 15.1543 0.891429 0 0 0 1 2
213 1 7.97225 16.9536 2.69395 -9.58932 -3.99599 3.14317 1 1
214 1 8.91429 16.0457 0 0 0 0 1 3
215 1 9.78636 15.1437 2.67525 -1.60288 1.23115 2.92108 1 1
216 1 9.80572 16.9371 0.891429 0 0 0 1 2
217 1 8.87158 17.8346 1.84818 0.712068 4.83991 -1.24425 1 1
218 1 10.6794 16.012 1.82444 -9.56648 5.63859 5.02819 1 1
219 1 10.6971 14.2629 0 0 0 0 1 3
220 1 12.48 16.0457 0 0 0 0 1 3
221 1 11.5886 15.1543 0.891429 0 0 0 1 2
222 1 11.5651 16.9266 2.69292 0.387617 3.06112 3.9226 1 1
223 1 13.3942 15.1348 2.72019 -0.577587 2.77173 -5.14967 1 1
224 1 13.3714 16.9371 0.891429 0 0 0 1 2
225 1 12.4613 17.8634 1.8055 5.12794 6.87702 -0.302084 1 1
226 1 16.0495 14.2453 1.7936 1.53662 2.59013 7.15721 1 1
227 1 14.2691 16.052 1.77245 2.96744 -0.148515 1.2955 1 1
228 1 14.2629 14.2629 0 0 0 0 1 3
229 1 16.0457 16.0457 0 0 0 0 1 3
230 1 15.1543 15.1543 0.891429 0 0 0 1 2
231 1 15.2215 16.8959 2.70281 -3.9031 1.23685 2.65425 1 1
232 1 16.9782 15.1727 2.69661 -3.00003 -4.15846 2.16382 1 1
233 1 16.9371 16.9371 0.891429 0 0 0 1 2
234 1 17.8081 16.0945 1.82791 -8.20563 1.82282 -3.56835 1 1
235 1 17.8286 14.2629 0 0 0 0 1 3
236 1 19.6114 16.0457 0 0 0 0 1 3
237 1 18.72 15.1543 0.891429 0 0 0 1 2
238 1 18.6949 16.9647 2.73924 -1.62067 0.414168 -9.57327 1 1
239 1 20.4954 15.1309 2.74264 -4.08749 5.8373 -10.5788 1 1
240 1 20.5029 16.9371 0.891429 0 0 0 1 2
241 1 19.5972 17.8441 1.84744 -5.27311 9.07583 1.18455 1 1
242 1 1.75054 17.8132 1.82131 -0.597163 -4.85599 8.10762 1 1
243 1 0 17.8286 0 0 0 0 1 3
244 1 1.78286 19.6114 0 0 0 0 1 3
245 1 0.891429 18.72 0.891429 0 0 0 1 2
246 1 0.874323 20.4741 2.69525 6.14055 -10.4564 -0.327117 1 1
247 1 2.68155 18.7259 2.68805 -2.16655 -4.39029 -1.19192 1 1
248 1 2.67429 20.5029 0.891429 0 0 0 1 2
249 1 3.5972 19.6279 1.7554 3.48716 1.7733 -2.00949 1 1
250 1 -0.0107309 19.5979 1.77162 -3.33095 5.68064 -4.02437 1 1
251 1 5.37285 21.4225 1.81683 3.71241 6.08184 0.42173 1 1
252 1 3.56572 17.8286 0 0 0 0 1 3
253 1 5.34857 19.6114 0 0 0 0 1 3
254 1 4.45714 18.72 0.891429 0 0 0 1 2
255 1 4.46175 20.5078 2.71983 -13.6637 -0.190077 3.35991 1 1
256 1 6.2007 18.7281 2.63957 3.16818 -2.67861 2.03234 1 1
257 1 6.24 20.5029 0.891429 0 0 0 1 2
258 1 7.1164 19.6245 1.7582 9.76958 -0.915855 -2.54805 1 1
259 1 7.13143 17.8286 0 0 0 0 1 3
260 1 8.02286 18.72 0.891429 0 0 0 1 2
261 1 8.06639 20.5121 2.67905 -2.57501 -1.32865 -1.30463 1 1
262 1 8.91429 19.6114 0 0 0 0 1 3
263 1 9.79446 18.7011 2.68379 2.51058 2.82413 0.848167 1 1
264 1 9.80572 20.5029 0.891429 0 0 0 1 2
265 1 10.6599 19.5964 1.78135 4.87152 -7.56423 1.39168 1 1
266 1 12.4655 21.3812 1.76304 7.91186 2.87422 4.78843 1 1
267 1 10.6971 17.8286 0 0 0 0 1 3
268 1 12.48 19.6114 0 0 0 0 1 3
269 1 11.5886 18.72 0.891429 0 0 0 1 2
270 1 11.53 20.5278 2.6656 0.387362 2.99671 10.5231 1 1
271 1 13.3561 18.7176 2.68377 -5.13967 4.70227 -1.62011 1 1
272 1 13.3714 20.5029 0.891429 0 0 0 1 2
273 1 14.2688 19.5856 1.78127 3.35874 5.01074 2.11644 1 1
274 1 16.0931 17.8318 1.77658 2.94412 -4.81849 4.79384 1 1
275 1 14.2629 17.8286 0 0 0 0 1 3
276 1 16.0457 19.6114 0 0 0 0 1 3
277 1 15.1543 18.72 0.891429 0 0 0 1 2
278 1 15.1475 20.5518 2.69712 -9.3936 3.26714 0.769863 1 1
279 1 16.952 18.7523 2.70136 -7.96973 1.41018 3.85636 1 1
280 1 16.9371 20.5029 0.891429 0 0 0 1 2
281 1 19.5956 21.3881 1.80638 2.54716 -0.111577 7.98354 1 1
282 1 17.8298 19.6058 1.8038 -0.590075 6.42454 -3.26561 1 1
283 1 17.8286 17.8286 0 0 0 0 1 3
284 1 19.6114 19.6114 0 0 0 0 1 3
285 1 18.72 18.72 0.891429 0 0 0 1 2
286 1 18.6983 20.5019 2.70646 6.01988 1.27352 -2.91023 1 1
287 1 20.5246 18.6888 2.75109 0.973936 -6.7348 -0.578923 1 1
288 1 20.5029 20.5029 0.891429 0 0 0 1 2
289 1 1.75993 1.76895 3.62342 4.45073 12.6076 -7.89935 1 1
290 1 0.902536 0.903852 4.5146 -3.16048 4.70379 -3.32459 1 1
291 1 2.65501 2.7021 4.4862 -7.7351 -5.21988 8.20235 1 1
292 1 1.82802 -0.00865487 5.392 0.0154997 -8.35388 -2.12652 1 1
293 1 1.77495 3.59768 5.39245 -2.15028 2.06638 -1.97203 1 1
294 1 0.0228657 1.81735 5.36889 5.11403 4.74356 -6.26159 1 1
295 1 0.0180222 21.3208 3.62366 -7.73116 -6.92468 9.66104 1 1
296 1 3.58954 1.83515 5.39676 3.08145 -1.55716 -8.25762 1 1
297 1 5.37414 1.78848 3.56847 11.2855 -10.4317 -1.84533 1 1
298 1 4.51053 0.910546 4.48891 1.77522 2.9168 5.60106 1 1
299 1 6.2799 0.922486 6.30143 3.09883 2.43008 -4.15915 1 1
300 1 6.25605 2.65107 4.46744 -1.10484 2.05051 -0.8456 1 1
301 1 3.5837 21.3845 3.57853 -2.83568 -0.347403 -11.8235 1 1
302 1 7.16061 21.3869 3.6334 3.73337 3.57698 -9.06356 1 1
303 1 5.31542 0.0326876 5.41784 -0.401383 -5.32209 -0.948203 1 1
304 1 7.15139 3.57888 3.58405 5.05685 1.33741 -8.68832 1 1
305 1 7.09369 1.81114 5.39834 -1.95184 -4.39894 -5.15233 1 1
306 1 8.93437 1.76772 3.67533 -2.7333 -0.407685 -7.83814 1 1
307 1 8.0048 0.886443 4.52022 3.16138 -1.03631 0.573871 1 1
308 1 8.00522 2.67939 6.31135 6.71778 -3.28498 3.17852 1 1
309 1 9.80921 0.867006 6.29616 -4.36867 6.06707 -3.45912 1 1
310 1 9.81499 2.67124 4.54887 -6.54582 -2.83141 -3.89346 1 1
311 1 10.7193 1.78573 5.38378 4.14797 -2.24627 1.37032 1 1
312 1 12.4816 1.76481 3.60394 -4.93352 -2.56502 -0.812606 1 1
313 1 11.6345 0.848074 4.51409 -4.684 3.60421 -7.48522 1 1
314 1 11.6205 2.68675 6.29936 -2.85616 2.50445 7.65451 1 1
315 1 13.3949 2.70109 4.46086 -1.16725 2.52894 -0.304943 1 1
316 1 13.3325 0.934626 6.33063 -4.16644 -0.65667 9.45926 1 1
317 1 12.4507 3.54414 5.39303 6.39563 1.40608 5.91032 1 1
318 1 14.2531 1.78805 5.41504 6.70363 8.16769 -1.74091 1 1
319 1 12.505 21.3656 5.41049 -1.70168 -4.4396 -2.81546 1 1
320 1 14.2478 3.61542 3.56756 8.90008 -4.16656 1.60801 1 1
321 1 16.0726 1.7657 3.56837 0.23596 -0.0312096 2.58304 1 1
322 1 15.1482 0.89699 4.53007 -2.00961 0.902791 3.69805 1 1
323 1 15.1204 2.66919 6.27023 -4.98137 -1.57757 7.08813 1 1
324 1 16.8688 2.68156 4.48497 -0.518846 -2.45856 2.61599 1 1
325 1 17.8228 1.82981 5.40631 1.62014 -11.2195 -3.05008 1 1
326 1 16.0623 0.0325329 5.43958 -7.20897 0.0392111 -2.85225 1 1
327 1 19.6421 1.79539 3.61807 3.96269 2.88458 -6.32351 1 1
328 1 18.7316 0.955416 4.57318 6.00414 -4.01535 11.6196 1 1
329 1 20.4971 2.70706 4.52248 -1.02048 1.32834 -4.06911 1 1
330 1 17.8225 21.4094 3.574 -2.61949 5.76295 0.594778 1 1
331 1 19.6651 0.0376092 5.41754 6.50985 2.05781 -5.44617 1 1
332 1 21.3768 3.60369 3.61253 3.79875 -2.51815 0.642504 1 1
333 1 1.76405 5.35518 3.56828 -4.65093 -5.32006 -2.54893 1 1
334 1 0.868401 4.46934 4.50614 -2.46605 3.29348 -4.37234 1 1
335 1 2.68602 4.45468 6.28862 -6.07261 1.28821 -0.437404 1 1
336 1 2.67816 6.26411 4.48449 2.5566 1.33271 -0.951883 1 1
337 1 3.58816 3.54346 3.57975 2.96942 -0.316912 4.17711 1 1
338 1 0.0119267 5.42974 5.40945 -3.89593 -1.45261 -1.98486 1 1
339 1 3.59022 5.32869 5.37131 -1.2179 2.41689 5.03971 1 1
340 1 5.3549 3.58363 5.35203 -2.66946 1.30769 -1.88568 1 1
341 1 5.33746 5.37079 3.56743 -1.86807 0.598598 -0.616323 1 1
342 1 4.46301 4.46079 4.48091 5.47665 3.43028 2.32704 1 1
343 1 4.42498 6.2222 6.27577 -3.64208 4.88007 5.3053 1 1
344 1 6.22324 6.22749 4.50498 -8.63101 -6.38774 0.438555 1 1
345 1 7.13995 5.35358 5.39662 9.79861 -2.97367 -1.95947 1 1
346 1 5.35511 7.14485 5.37386 -4.55342 -3.3655 -0.850709 1 1
347 1 6.20661 4.47923 6.33148 -4.55957 1.21839 -4.95135 1 1
348 1 8.92692 3.56383 5.44425 6.97728 3.08099 -2.41035 1 1
349 1 10.693 3.57596 3.63811 -1.78802 -7.25788 1.24002 1 1
350 1 8.92831 5.35647 3.6032 3.93035 5.04317 3.55662 1 1
351 1 8.05431 4.45914 4.48673 -7.62041 1.41084 -0.845456 1 1
352 1 8.02737 6.23416 6.32215 -3.6715 0.627812 -3.55548 1 1
353 1 9.84382 4.46949 6.32618 0.223139 0.110103 -0.338076 1 1
354 1 9.83714 6.24272 4.51915 -7.48657 4.91527 -6.27367 1 1
355 1 10.7384 5.38506 5.41176 4.28446 -1.44157 3.09128 1 1
356 1 12.4665 5.32625 3.53933 -4.5705 7.35093 -0.0183976 1 1
357 1 11.5592 4.43053 4.50336 -2.55718 -2.72432 -1.9906 1 1
358 1 13.3261 6.26121 4.49215 2.07191 -3.87421 -7.84271 1 1
359 1 14.2188 5.34654 5.34096 6.60323 4.76496 -0.302444 1 1
360 1 16.0239 3.55243 5.36349 6.65188 -4.50849 5.44986 1 1
361 1 17.8 3.6081 3.6317 2.58006 2.56111 -3.60868 1 1
362 1 15.9866 5.37282 3.60919 5.86023 -5.81169 -1.86635 1 1
363 1 15.1481 4.48169 4.47997 -4.98063 0.699829 0.150401 1 1
364 1 16.9179 6.25457 4.50313 -5.93886 8.00296 0.928027 1 1
365 1 16.9198 4.42313 6.31554 3.90869 11.0727 2.89854 1 1
366 1 15.9922 7.13172 5.40591 4.98425 2.77015 -1.43217 1 1
367 1 15.1432 6.21918 6.31281 7.49305 5.13007 6.92504 1 1
368 1 19.5976 3.59597 5.40586 -2.05011 -4.3063 3.37693 1 1
369 1 17.7739 5.363 5.41367 -2.71617 0.347701 2.1757 1 1
370 1 19.5923 5.32739 3.61423 -2.20274 -1.48474 -0.86282 1 1
371 1 18.7045 4.51887 4.54615 -0.67362 5.85732 -6.3666 1 1
372 1 20.5414 4.49082 6.33708 3.29507 -7.12275 2.39477 1 1
373 1 20.4623 6.20015 4.46842 3.96723 8.42251 3.40176 1 1
374 1 19.6079 7.18019 5.39415 1.07019 -0.734632 -1.26165 1 1
375 1 0.00344834 7.09691 3.62526 -6.53021 -0.702521 1.66659 1 1
376 1 1.79792 7.1219 5.36552 -1.86583 -1.28829 -8.38515 1 1
377 1 1.81977 8.90307 3.60183 0.0473457 -4.29171 1.5448 1 1
378 1 0.901627 8.00773 4.47806 -4.34152 -2.2525 1.46002 1 1
379 1 2.74648 8.02831 6.27367 -1.41818 -7.50192 2.23918 1 1
380 1 0.927514 9.77208 6.27363 0.644012 -2.12894 -1.51804 1 1
381 1 2.69421 9.82972 4.48003 -6.95816 3.11086 1.56205 1 1
382 1 0.0396621 8.87427 5.41782 -4.42894 -7.09308 3.97665 1 1
383 1 1.86729 10.742 5.40791 6.44202 -4.00529 -4.9174 1 1
384 1 3.55739 7.12726 3.64504 2.81522 1.65789 2.98682 1 1
385 1 7.1681 7.14492 3.58238 5.81509 1.04715 1.84974 1 1
386 1 3.6216 10.765 3.58453 -8.12747 5.70718 2.33494 1 1
387 1 3.61595 8.95345 5.37307 -7.42996 0.738053 -5.87826 1 1
388 1 5.38423 8.95145 3.60986 3.62255 -7.48545 3.82386 1 1
389 1 4.484 7.99393 4.44779 -13.958 0.925575 -2.54184 1 1
390 1 4.50216 9.82621 6.26942 -5.35714 1.58911 11.641 1 1
391 1 6.27719 9.79897 4.50579 -0.121312 -0.719192 3.87424 1 1
392 1 8.92079 7.15482 5.40232 3.58583 -1.86654 -2.30561 1 1
393 1 7.1354 8.88395 5.36174 -3.65383 -2.79909 -0.325928 1 1
394 1 8.92237 8.92865 3.57818 8.66701 0.920245 1.18932 1 1
395 1 8.05897 8.04543 4.49605 5.23233 -4.22433 -1.32441 1 1
396 1 9.81938 9.83122 4.46936 6.50476 0.0248227 -3.06035 1 1
397 1 10.699 8.95595 5.42801 0.285599 -0.0509355 -0.808907 1 1
398 1 10.7051 10.7315 3.59367 4.68159 3.67285 9.45909 1 1
399 1 9.82447 8.07017 6.34364 7.35075 -5.94941 0.69159 1 1
400 1 12.476 7.16546 5.41561 -8.22706 -3.6916 -4.15417 1 1
401 1 10.7399 7.13355 3.62736 -2.03964 1.00592 -1.06978 1 1
402 1 12.4974 8.96078 3.59555 -3.73138 -0.209189 -4.75657 1 1
403 1 11.588 8.04762 4.52189 1.99617 5.92174 -7.61937 1 1
404 1 13.379 9.79058 4.50859 -4.01587 -1.28601 -2.40808 1 1
405 1 14.2328 7.14384 3.63602 12.0655 -0.584335 -1.06595 1 1
406 1 14.2924 8.94071 5.37265 0.96692 -3.44625 0.661685 1 1
407 1 17.8737 7.09885 3.57296 5.91605 -1.06683 -4.72989 1 1
408 1 16.0014 8.93211 3.57214 4.29725 0.265558 -0.30006 1 1
409 1 15.1253 8.05051 4.46837 -3.43705 1.02842 -3.03817 1 1
410 1 16.9439 9.77885 4.52438 -1.18811 -3.22143 -3.02797 1 1
411 1 16.0488 10.6749 5.38305 -0.336651 3.97851 -3.07405 1 1
412 1 16.9263 7.97928 6.29492 1.26326 -3.53581 1.11222 1 1
413 1 17.8069 8.92422 5.42212 -1.75474 7.44943 0.322954 1 1
414 1 19.5893 8.91152 3.60777 -3.1281 -4.4013 5.07172 1 1
415 1 18.6829 8.03599 4.54056 -5.35948 0.178919 0.39754 1 1
416 1 18.7417 9.76645 6.30531 1.33241 -0.84896 -3.58486 1 1
417 1 20.5394 9.78295 4.50476 -3.6589 9.21021 -4.92449 1 1
418 1 20.5145 7.97812 6.30026 -4.46599 -0.475529 1.47509 1 1
419 1 19.6557 10.6791 5.40219 -1.87295 3.15063 -1.55694 1 1
420 1 21.4141 10.7027 3.58902 6.63419 1.11194 -0.826873 1 1
421 1 1.79435 12.4965 3.62834 -6.63959 -2.85381 2.87107 1 1
422 1 0.931489 11.5979 4.55089 7.15372 1.56857 0.444516 1 1
423 1 2.69861 11.6357 6.26772 -0.872759 7.66246 -1.33828 1 1
424 1 0.92224 13.3588 6.27882 -2.93558 0.866429 -5.30398 1 1
425 1 2.67015 13.3972 4.48077 7.83203 -3.76919 -6.4478 1 1
426 1 0.0317869 12.4633 5.41799 -4.12916 1.04433 -1.26319 1 1
427 1 5.33795 10.718 5.39397 3.95296 -0.59213 -1.47567 1 1
428 1 3.57005 14.2547 3.57615 -5.72444 8.27763 1.75515 1 1
429 1 3.56448 12.556 5.37309 -2.06086 3.65361 -6.37335 1 1
430 1 5.36772 12.4741 3.58838 -1.6419 0.205495 -8.49765 1 1
431 1 4.45341 11.6608 4.50017 4.0369 -0.257806 5.1866 1 1
432 1 6.27089 13.3885 4.50325 -3.4888 -6.10349 8.72232 1 1
433 1 7.13007 14.319 3.59753 -3.51664 0.445481 3.28337 1 1
434 1 6.28651 11.5821 6.30535 -5.49017 6.25692 -3.34038 1 1
435 1 7.13299 10.7177 3.63791 0.241534 6.60564 1.16688 1 1
436 1 7.14653 12.5351 5.37664 3.691 2.55 9.60249 1 1
437 1 8.9259 10.6991 5.36373 4.54081 -2.23904 -6.67439 1 1
438 1 8.93034 12.4861 3.60709 -4.55124 -2.36166 -0.269168 1 1
439 1 8.02906 11.598 4.50394 -9.38595 -2.40776 -1.81137 1 1
440 1 9.81146 11.6056 6.29623 -2.71397 -5.3358 1.84099 1 1
441 1 8.01147 13.4122 6.28217 -2.02835 7.69896 1.78233 1 1
442 1 9.83466 13.4121 4.51061 10.1157 0.581207 -0.531631 1 1
443 1 10.7238 14.3085 3.61879 -0.899669 0.945756 -1.56845 1 1
444 1 12.5353 10.6886 5.43724 -3.0232 0.45045 6.3913 1 1
445 1 10.6865 12.4748 5.37706 0.618632 0.475709 -3.52534 1 1
446 1 12.4964 12.4775 3.60786 -2.18763 -1.30354 -0.370526 1 1
447 1 11.6118 11.5936 4.49157 3.19353 0.16317 -1.18593 1 1
448 1 13.4181 11.6357 6.27237 3.88138 -1.30781 0.0345661 1 1
449 1 11.6501 13.367 6.27259 -3.82203 4.19461 0.318526 1 1
450 1 13.3945 13.4105 4.51812 -0.202001 2.85453 5.47563 1 1
451 1 14.2405 10.704 3.59853 -3.44487 -1.61356 -3.5815 1 1
452 1 14.2473 12.5366 5.39283 2.2806 -1.05674 6.71014 1 1
453 1 16.0706 12.5444 3.62093 1.16289 3.19065 -0.524014 1 1
454 1 15.1557 11.6088 4.50955 0.020539 -0.549211 -4.61221 1 1
455 1 16.963 11.5461 6.22687 0.418093 -2.52626 4.75322 1 1
456 1 16.9388 13.3457 4.49165 2.43762 -2.81591 0.536526 1 1
457 1 17.852 12.4644 5.33575 6.91171 -1.4294 -2.8109 1 1
458 1 15.1707 13.4054 6.24821 11.5353 2.25871 2.72644 1 1
459 1 17.8019 10.6684 3.59991 3.46374 -7.39807 6.07465 1 1
460 1 19.633 12.4736 3.57075 -1.99592 -2.14908 -2.60268 1 1
461 1 18.7348 11.5769 4.50276 1.16061 -2.52135 -8.79644 1 1
462 1 18.7352 13.3201 6.26337 10.4319 -3.26865 7.96972 1 1
463 1 20.5243 13.3512 4.51401 -2.84477 -6.15913 -1.55182 1 1
464 1 20.5409 11.54 6.27885 7.45548 -3.59823 -6.10007 1 1
465 1 1.76144 14.2742 5.3897 -1.44173 -3.10696 6.89355 1 1
466 1 1.82977 16.0639 3.60748 -7.2019 1.36583 -7.34599 1 1
467 1 0.899308 15.1173 4.5107 0.917699 -14.8012 -2.84731 1 1
468 1 2.70014 15.1848 6.29955 3.42525 9.56793 3.01177 1 1
469 1 2.69408 16.9413 4.50113 -3.47945 -1.2384 3.9926 1 1
470 1 0.038913 16.0045 5.35643 -1.73392 1.70867 3.68096 1 1
471 1 0.047829 14.2504 3.60717 -0.218441 -10.1143 -2.43157 1 1
472 1 1.8406 17.8249 5.41661 -2.3705 0.485503 5.56791 1 1
473 1 5.4105 14.2702 5.41713 -4.51413 -9.21024 0.342493 1 1
474 1 3.60075 16.0628 5.40502 -1.18486 -1.20051 -8.49671 1 1
475 1 5.32078 16.033 3.57213 -3.22887 -2.86539 2.05875 1 1
476 1 4.49119 15.1412 4.5413 -8.54723 -3.2417 0.225803 1 1
477 1 4.41229 16.9588 6.26881 1.45877 -11.9554 -0.0233055 1 1
478 1 6.22142 15.1833 6.27583 -0.0114914 -3.88622 1.98273 1 1
479 1 6.20365 16.9771 4.48627 1.92756 -4.05129 -5.57057 1 1
480 1 7.10049 16.0846 5.38378 -3.93916 -2.90921 4.7072 1 1
481 1 8.91758 14.3016 5.39963 0.413994 -0.630492 0.667511 1 1
482 1 8.89901 16.0183 3.61899 -3.82804 7.95663 1.0104 1 1
483 1 8.01383 15.1896 4.4893 3.29939 7.91143 15.5407 1 1
484 1 8.02191 16.9385 6.25357 -0.158498 -5.12305 0.175646 1 1
485 1 9.82047 15.1767 6.27709 4.66683 0.262793 4.97871 1 1
486 1 9.81358 16.932 4.47892 2.80792 -2.77091 10.9483 1 1
487 1 10.7419 16.0616 5.39552 -2.52877 8.05592 7.61317 1 1
488 1 8.91032 17.843 5.31915 1.83098 -1.82508 3.22847 1 1
489 1 10.6766 17.8075 3.57716 6.02952 6.67962 -3.33377 1 1
490 1 12.5047 14.2748 5.39475 -9.84481 -0.0178893 4.01542 1 1
491 1 12.4906 16.0027 3.57571 2.68586 -5.51571 -8.69374 1 1
492 1 11.5797 15.1397 4.54612 5.81524 3.09836 2.01912 1 1
493 1 11.636 16.9323 6.29128 7.99305 -0.548585 2.83815 1 1
494 1 13.4118 16.9125 4.47717 0.205511 5.98995 -0.829071 1 1
495 1 13.3898 15.1804 6.2502 -11.0745 -2.51799 2.28111 1 1
496 1 12.5094 17.8037 5.38138 5.2595 3.95274 8.01924 1 1
497 1 14.2705 14.3283 3.60511 -2.68451 -4.32162 -7.13896 1 1
498 1 16.0842 14.2829 5.36306 -7.12873 -1.56604 7.31748 1 1
499 1 17.891 14.2391 3.5762 -0.334094 -2.27646 3.16415 1 1
500 1 14.2737 16.097 5.41358 5.75709 1.54037 4.36653 1 1
501 1 14.2705 17.868 3.59387 -5.43076 -0.0360498 -6.49512 1 1
502 1 16.0627 16.033 3.59443 5.72823 -1.2273 5.19447 1 1
503 1 15.1929 15.2078 4.55092 3.88189 -2.01161 3.79168 1 1
504 1 16.977 16.9766 4.49793 0.157871 7.42304 3.5497 1 1
505 1 16.9883 15.128 6.27007 -4.67025 -1.78789 0.985114 1 1
506 1 17.8891 16.0669 5.38773 0.937565 -11.5975 1.03747 1 1
507 1 19.6168 14.2981 5.3804 -2.83421 -3.68933 1.60068 1 1
508 1 19.6036 16.0648 3.62563 2.55984 2.96949 -9.02096 1 1
509 1 18.7175 15.1724 4.47988 6.65865 -9.37195 2.73183 1 1
510 1 20.4817 16.9383 4.50856 6.60476 -0.507181 -0.813242 1 1
511 1 19.6516 17.8254 5.42827 -6.47175 7.70766 -5.17112 1 1
512 1 20.5436 15.1889 6.30376 0.880242 -2.21112 6.44954 1 1
513 1 1.783 19.5866 3.59178 -1.42598 5.83001 4.71599 1 1
514 1 0.880733 18.7204 4.52118 -0.0930183 -1.35914 1.64494 1 1
515 1 0.874374 20.5268 6.31433 -1.68444 -2.72404 -0.0778288 1 1
516 1 2.7181 20.4999 4.47616 -0.951198 5.69323 -0.914245 1 1
517 1 -0.0149199 17.8222 3.67376 -4.19769 -9.54821 1.86863 1 1
518 1 0.0313854 19.5991 5.41529 -7.49878 -2.49551 -4.11373 1 1
519 1 2.7216 18.7187 6.30791 4.75349 1.50946 -0.689152 1 1
520 1 5.32299 17.8157 5.36455 -0.534405 -8.13985 4.27178 1 1
521 1 3.57101 17.8296 3.58882 -3.99094 -0.356665 2.11109 1 1
522 1 3.5752 19.6174 5.35802 3.94564 4.71279 7.1211 1 1
523 1 5.36661 19.5876 3.59368 5.66875 -1.49652 7.99241 1 1
524 1 4.45775 18.6951 4.45977 -2.01946 -1.949 3.95536 1 1
525 1 4.43391 20.5192 6.26581 -0.143352 2.17255 6.00087 1 1
526 1 6.20736 18.7016 6.27998 -2.82623 1.15876 1.78769 1 1
527 1 6.2574 20.5353 4.54187 13.8052 -6.64395 6.84836 1 1
528 1 7.06542 17.8484 3.55069 0.820845 -3.41482 0.943376 1 1
529 1 7.14206 19.6474 5.35209 5.07368 5.89932 -3.17687 1 1
530 1 8.92419 21.4052 5.38381 0.57936 2.88955 0.754927 1 1
531 1 8.93496 19.5865 3.54544 7.2718 6.31926 4.95825 1 1
532 1 7.98324 18.7258 4.43014 0.657148 5.49256 -0.323882 1 1
533 1 8.0517 20.4854 6.30118 9.46896 -3.76783 -0.475274 1 1
534 1 9.76991 18.708 6.31068 1.0146 -0.265934 2.76294 1 1
535 1 9.82871 20.4577 4.46596 6.85715 1.50386 1.37721 1 1
536 1 10.6744 19.5723 5.37424 4.55412 -3.17784 -1.92092 1 1
537 1 10.7243 21.3867 3.60923 -3.05424 0.580525 -1.26906 1 1
538 1 12.5083 19.6063 3.58727 -0.168127 -3.50332 2.74824 1 1
539 1 11.553 18.7065 4.47678 0.906019 -1.55396 0.907585 1 1
540 1 13.3925 18.7096 6.30553 -1.98781 12.4918 -3.07939 1 1
541 1 13.3931 20.4786 4.48069 7.00757 -0.229534 -1.80377 1 1
542 1 16.0794 17.8498 5.39012 2.11613 3.95594 0.972932 1 1
543 1 14.2348 21.3929 3.58473 4.85188 -0.155257 2.05431 1 1
544 1 14.2697 19.6386 5.42791 -2.60881 -4.9436 2.82428 1 1
545 1 16.0378 19.6601 3.61486 0.320198 5.50137 -5.9741 1 1
546 1 15.1384 18.7618 4.46792 -3.27141 -1.7727 1.88728 1 1
547 1 16.9968 18.7315 6.31989 6.60331 0.597203 1.03008 1 1
548 1 16.9452 20.5359 4.53971 -3.16499 -3.56619 -0.648424 1 1
549 1 17.8724 19.6173 5.44734 -3.70377 -2.40369 6.0878 1 1
550 1 17.8125 17.8419 3.59516 1.68824 0.754258 3.02352 1 1
551 1 19.6504 19.6031 3.63839 -4.34508 6.40614 -2.12486 1 1
552 1 18.7842 18.7564 4.53694 -3.90875 -4.66293 1.43381 1 1
553 1 18.7711 20.5752 6.34668 -5.28188 1.69876 4.85377 1 1
554 1 20.493 18.7064 6.3312 -6.00932 -0.542338 6.20794 1 1
555 1 20.5131 20.476 4.55398 -0.574836 0.639638 1.45374 1 1