ITEM: TIMESTEP
2500
ITEM: NUMBER OF ATOMS
2952
ITEM: BOX BOUNDS pp pp mm
0.0000000000000000e+00 2.1394294200000001e+01
0.0000000000000000e+00 2.1394294200000001e+01
-4.4571446250000002e-01 5.3485735500000004e+01
ITEM: ATOMS id type x y z vx vy vz v_is_diamond c_structure_type
1 1 0 0 0 0 0 0 1 3
2 1 1.78286 1.78286 0 0 0 0 1 3
3 1 0.891429 0.891429 0.891429 0 0 0 1 2
4 1 0.886018 2.67182 2.69702 -0.295795 0.0878802 2.05642 1 1
5 1 2.69763 0.887441 2.67372 -2.9825 8.15139 0.9448 1 1
6 1 2.67429 2.67429 0.891429 0 0 0 1 2
7 1 21.3913 1.8013 1.82619 -2.11006 -0.246603 0.710805 1 1
8 1 1.79162 21.3914 1.79289 3.08009 -1.92388 -4.25776 1 1
9 1 1.76891 3.57792 1.73861 4.94969 0.474488 -2.20226 1 1
10 1 3.57239 1.76477 1.78349 5.39124 -1.13481 -1.02945 1 1
11 1 3.56572 0 0 0 0 0 1 3
12 1 5.34857 1.78286 0 0 0 0 1 3
13 1 4.45714 0.891429 0.891429 0 0 0 1 2
14 1 4.43078 2.71561 2.64776 -5.97553 8.55813 -4.37596 1 1
15 1 6.22254 0.852712 2.66248 3.32064 0.230952 3.62374 1 1
16 1 6.24 2.67429 0.891429 0 0 0 1 2
17 1 7.16069 1.72826 1.79125 -3.86934 3.37515 1.21786 1 1
18 1 7.13143 0 0 0 0 0 1 3
19 1 8.02286 0.891429 0.891429 0 0 0 1 2
20 1 8.02799 2.6493 2.67084 1.42566 9.63779 2.75678 1 1
21 1 8.91429 1.78286 0 0 0 0 1 3
22 1 9.84302 0.917137 2.6834 3.73278 0.483274 -9.25861 1 1
23 1 9.80572 2.67429 0.891429 0 0 0 1 2
24 1 8.94704 0.00954418 1.76991 -2.42781 -0.451784 -2.27758 1 1
25 1 10.6847 1.83237 1.78303 -4.40813 7.79499 -4.54932 1 1
26 1 10.6971 0 0 0 0 0 1 3
27 1 12.48 1.78286 0 0 0 0 1 3
28 1 11.5886 0.891429 0.891429 0 0 0 1 2
29 1 11.5588 2.70786 2.70055 3.88835 1.60711 3.04186 1 1
30 1 13.3096 0.874813 2.6986 -4.99393 0.195812 0.725873 1 1
31 1 13.3714 2.67429 0.891429 0 0 0 1 2
32 1 14.2059 1.77554 1.82932 -11.0806 -1.41729 -4.13935 1 1
33 1 14.2629 0 0 0 0 0 1 3
34 1 16.0457 1.78286 0 0 0 0 1 3
35 1 15.1543 0.891429 0.891429 0 0 0 1 2
36 1 15.1076 2.67048 2.64645 1.98101 2.97544 -2.83153 1 1
37 1 16.9223 0.889269 2.69293 1.8105 6.44308 -3.94861 1 1
38 1 16.9371 2.67429 0.891429 0 0 0 1 2
39 1 16.0008 21.4162 1.78105 0.319724 3.03319 -9.80414 1 1
40 1 17.8556 1.7289 1.79297 -0.771234 3.37524 5.22215 1 1
41 1 17.8286 0 0 0 0 0 1 3
42 1 19.6114 1.78286 0 0 0 0 1 3
43 1 18.72 0.891429 0.891429 0 0 0 1 2
44 1 18.7162 2.65614 2.73623 1.49927 0.652361 4.19999 1 1
45 1 20.4977 0.848113 2.69582 -2.3777 9.13647 -2.87215 1 1
46 1 20.5029 2.67429 0.891429 0 0 0 1 2
47 1 0 3.56572 0 0 0 0 1 3
48 1 1.78286 5.34857 0 0 0 0 1 3
49 1 0.891429 4.45714 0.891429 0 0 0 1 2
50 1 0.85295 6.25386 2.70328 6.87934 4.06935 1.7362 1 1
51 1 2.63247 4.44561 2.67948 -1.38865 -1.0012 7.32688 1 1
52 1 2.67429 6.24 0.891429 0 0 0 1 2
53 1 3.57654 5.32017 1.78962 4.85481 -3.13725 0.710897 1 1
54 1 5.35546 3.58752 1.75621 -4.51843 0.543108 -1.83026 1 1
55 1 3.56572 3.56572 0 0 0 0 1 3
56 1 5.34857 5.34857 0 0 0 0 1 3
57 1 4.45714 4.45714 0.891429 0 0 0 1 2
58 1 4.46858 6.21001 2.65451 6.26289 -1.08562 9.89855 1 1
59 1 6.24275 4.43992 2.67901 0.448272 -0.834089 10.6544 1 1
60 1 6.24 6.24 0.891429 0 0 0 1 2
61 1 5.369 7.13305 1.74261 3.9906 6.43584 -11.84 1 1
62 1 7.12771 5.34343 1.79725 8.33852 -1.98578 -1.86929 1 1
63 1 7.13143 3.56572 0 0 0 0 1 3
64 1 8.86864 3.57219 1.78153 -10.0387 -5.81114 1.70523 1 1
65 1 8.02286 4.45714 0.891429 0 0 0 1 2
66 1 8.01011 6.26572 2.67819 1.90546 -1.47039 4.01455 1 1
67 1 8.91429 5.34857 0 0 0 0 1 3
68 1 9.77336 4.43571 2.6489 0.762545 -1.72494 -3.84808 1 1
69 1 9.80572 6.24 0.891429 0 0 0 1 2
70 1 10.72 5.37586 1.8183 -6.9143 -2.42534 10.6467 1 1
71 1 12.463 3.57965 1.7947 -1.61642 -3.8566 -3.07311 1 1
72 1 10.6971 3.56572 0 0 0 0 1 3
73 1 12.48 5.34857 0 0 0 0 1 3
74 1 11.5886 4.45714 0.891429 0 0 0 1 2
75 1 11.6133 6.23439 2.7077 -1.42089 -6.07322 3.67841 1 1
76 1 13.3459 4.50234 2.6525 0.885145 -2.54376 1.17524 1 1
77 1 13.3714 6.24 0.891429 0 0 0 1 2
78 1 14.2768 5.3565 1.76569 3.68507 1.84498 -5.80965 1 1
79 1 16.0466 3.58516 1.78221 -6.20719 5.5665 -3.62931 1 1
80 1 14.2629 3.56572 0 0 0 0 1 3
81 1 16.0457 5.34857 0 0 0 0 1 3
82 1 15.1543 4.45714 0.891429 0 0 0 1 2
83 1 15.1746 6.28546 2.66569 1.85683 -5.80334 -6.67735 1 1
84 1 16.957 4.45976 2.68415 -6.8473 3.48755 0.953165 1 1
85 1 16.9371 6.24 0.891429 0 0 0 1 2
86 1 17.8193 5.36036 1.76891 0.262713 2.57369 3.05942 1 1
87 1 19.6492 3.54917 1.81654 -4.88252 2.071 1.8833 1 1
88 1 21.3925 5.35662 1.8128 -0.708481 4.87291 3.22689 1 1
89 1 17.8286 3.56572 0 0 0 0 1 3
90 1 19.6114 5.34857 0 0 0 0 1 3
91 1 18.72 4.45714 0.891429 0 0 0 1 2
92 1 18.7096 6.25382 2.64953 0.461487 1.37027 1.16696 1 1
93 1 20.4682 4.47358 2.71661 1.28248 3.74262 1.47011 1 1
94 1 20.5029 6.24 0.891429 0 0 0 1 2
95 1 19.6015 7.14567 1.80818 -0.49504 0.982896 -2.11993 1 1
96 1 1.79805 7.12362 1.8068 3.1391 4.49123 0.277924 1 1
97 1 0 7.13143 0 0 0 0 1 3
98 1 0.891429 8.02286 0.891429 0 0 0 1 2
99 1 2.66157 8.02869 2.67924 3.2172 2.69697 4.2165 1 1
100 1 1.78286 8.91429 0 0 0 0 1 3
101 1 0.886051 9.82295 2.74159 6.13734 2.60875 0.349123 1 1
102 1 2.67429 9.80572 0.891429 0 0 0 1 2
103 1 1.76528 10.7134 1.80182 2.83853 1.49059 -4.47757 1 1
104 1 3.52274 8.91513 1.76234 -0.624263 2.97719 0.835491 1 1
105 1 3.56572 7.13143 0 0 0 0 1 3
106 1 4.45714 8.02286 0.891429 0 0 0 1 2
107 1 6.23212 7.97862 2.70091 0.84411 1.4882 -0.703163 1 1
108 1 5.34857 8.91429 0 0 0 0 1 3
109 1 4.4164 9.78908 2.66606 1.83663 -8.68999 2.04565 1 1
110 1 6.24 9.80572 0.891429 0 0 0 1 2
111 1 7.1314 8.90828 1.79859 0.612162 0.374573 -3.59234 1 1
112 1 8.87816 7.17229 1.79646 -10.923 4.85981 4.52975 1 1
113 1 7.13143 7.13143 0 0 0 0 1 3
114 1 8.02286 8.02286 0.891429 0 0 0 1 2
115 1 9.80131 8.01267 2.65472 5.87594 1.98772 -8.11422 1 1
116 1 8.01564 9.80198 2.68872 -6.2311 1.00467 2.3397 1 1
117 1 8.91429 8.91429 0 0 0 0 1 3
118 1 9.80572 9.80572 0.891429 0 0 0 1 2
119 1 10.6902 8.90171 1.77502 3.31556 -0.889447 5.89314 1 1
120 1 12.4709 7.09985 1.76999 -4.10882 -3.15648 0.457432 1 1
121 1 10.6971 7.13143 0 0 0 0 1 3
122 1 11.5886 8.02286 0.891429 0 0 0 1 2
123 1 13.3917 8.0393 2.63649 10.1861 4.65185 6.39722 1 1
124 1 12.48 8.91429 0 0 0 0 1 3
125 1 11.5769 9.80409 2.6994 -6.12113 2.21523 1.57934 1 1
126 1 13.3714 9.80572 0.891429 0 0 0 1 2
127 1 12.4475 10.6999 1.77721 9.29603 1.87289 1.52767 1 1
128 1 16.0387 7.13659 1.75239 -2.68083 -1.08516 -0.177834 1 1
129 1 14.2766 8.92962 1.73743 -9.40734 2.15905 5.15189 1 1
130 1 14.2629 7.13143 0 0 0 0 1 3
131 1 15.1543 8.02286 0.891429 0 0 0 1 2
132 1 16.9008 8.01135 2.59808 6.72743 2.62698 3.84779 1 1
133 1 16.0457 8.91429 0 0 0 0 1 3
134 1 15.1394 9.79983 2.65353 -1.65965 6.20137 -4.51343 1 1
135 1 16.9371 9.80572 0.891429 0 0 0 1 2
136 1 16.0502 10.7311 1.75053 4.90385 6.99741 -4.24035 1 1
137 1 17.8258 8.89695 1.71164 -2.67858 -0.524293 7.10831 1 1
138 1 21.3975 8.87632 1.78611 4.78792 -2.72424 6.3521 1 1
139 1 17.8286 7.13143 0 0 0 0 1 3
140 1 18.72 8.02286 0.891429 0 0 0 1 2
141 1 20.4926 8.02535 2.71493 -2.99699 9.44801 -5.22956 1 1
142 1 19.6114 8.91429 0 0 0 0 1 3
143 1 18.746 9.77555 2.6855 0.400274 -2.55259 -2.90605 1 1
144 1 20.5029 9.80572 0.891429 0 0 0 1 2
145 1 0 10.6971 0 0 0 0 1 3
146 1 1.78286 12.48 0 0 0 0 1 3
147 1 0.891429 11.5886 0.891429 0 0 0 1 2
148 1 2.65664 11.6179 2.64283 5.04604 -0.475491 -2.37593 1 1
149 1 0.858905 13.3957 2.69355 -1.18492 2.58532 -2.12838 1 1
150 1 2.67429 13.3714 0.891429 0 0 0 1 2
151 1 -0.0309339 12.4834 1.78641 3.18119 -2.16227 -2.92566 1 1
152 1 5.33314 10.6975 1.78103 -3.41891 2.9019 -4.89621 1 1
153 1 3.567 12.4947 1.7961 3.34414 5.18147 -2.77784 1 1
154 1 3.56572 10.6971 0 0 0 0 1 3
155 1 5.34857 12.48 0 0 0 0 1 3
156 1 4.45714 11.5886 0.891429 0 0 0 1 2
157 1 6.18813 11.585 2.67177 3.7999 -7.22377 -2.70541 1 1
158 1 4.43892 13.4054 2.65966 9.38574 -3.77636 -9.04286 1 1
159 1 6.24 13.3714 0.891429 0 0 0 1 2
160 1 5.35763 14.2139 1.76258 2.97542 5.63703 -2.85278 1 1
161 1 8.90784 10.6823 1.7785 -2.1583 8.01297 0.590874 1 1
162 1 7.13314 12.5019 1.83494 1.16624 0.567638 -5.54069 1 1
163 1 7.13143 10.6971 0 0 0 0 1 3
164 1 8.02286 11.5886 0.891429 0 0 0 1 2
165 1 8.91429 12.48 0 0 0 0 1 3
166 1 9.80103 11.5803 2.65595 -0.137346 -7.23615 -7.44125 1 1
167 1 8.00138 13.4068 2.68022 1.27162 -5.60478 -0.366049 1 1
168 1 9.80572 13.3714 0.891429 0 0 0 1 2
169 1 10.6832 12.4664 1.7887 5.26793 -1.86606 1.07927 1 1
170 1 10.6971 10.6971 0 0 0 0 1 3
171 1 12.48 12.48 0 0 0 0 1 3
172 1 11.5886 11.5886 0.891429 0 0 0 1 2
173 1 13.3432 11.563 2.66835 1.75252 8.23787 -5.44189 1 1
174 1 11.5779 13.3554 2.66497 3.16114 -5.25299 5.13169 1 1
175 1 13.3714 13.3714 0.891429 0 0 0 1 2
176 1 12.4951 14.2563 1.78083 7.54511 -0.544857 6.9569 1 1
177 1 14.2331 12.463 1.80907 2.82164 0.969794 3.09075 1 1
178 1 14.2629 10.6971 0 0 0 0 1 3
179 1 16.0457 12.48 0 0 0 0 1 3
180 1 15.1543 11.5886 0.891429 0 0 0 1 2
181 1 16.9315 11.5379 2.70749 -2.29672 5.64479 -1.29119 1 1
182 1 15.1849 13.3014 2.72758 -2.45562 -1.68533 4.13629 1 1
183 1 16.9371 13.3714 0.891429 0 0 0 1 2
184 1 17.8419 12.4277 1.80687 -5.775 -5.3348 -11.8487 1 1
185 1 19.6044 10.7086 1.79353 2.49727 6.56708 -1.13902 1 1
186 1 17.8286 10.6971 0 0 0 0 1 3
187 1 19.6114 12.48 0 0 0 0 1 3
188 1 18.72 11.5886 0.891429 0 0 0 1 2
189 1 20.4724 11.5879 2.70201 -0.594708 -3.35951 13.1808 1 1
190 1 18.7293 13.3429 2.68018 -0.374019 3.34884 4.26257 1 1
191 1 20.5029 13.3714 0.891429 0 0 0 1 2
192 1 19.5794 14.2528 1.77826 4.21716 1.85641 -2.86754 1 1
193 1 1.74839 14.2862 1.79841 -5.12676 -0.594916 4.41166 1 1
194 1 0 14.2629 0 0 0 0 1 3
195 1 1.78286 16.0457 0 0 0 0 1 3
196 1 0.891429 15.1543 0.891429 0 0 0 1 2
197 1 0.873724 16.902 2.69586 7.22748 3.47954 -6.47358 1 1
198 1 2.63909 15.1658 2.69545 -5.0342 8.65728 3.30169 1 1
199 1 2.67429 16.9371 0.891429 0 0 0 1 2
200 1 -0.0279246 16.0093 1.80093 -9.36323 0.242043 3.67462 1 1
201 1 3.60427 16.0422 1.80427 2.62081 -2.26718 0.317304 1 1
202 1 3.56572 14.2629 0 0 0 0 1 3
203 1 5.34857 16.0457 0 0 0 0 1 3
204 1 4.45714 15.1543 0.891429 0 0 0 1 2
205 1 4.44932 16.9257 2.68723 -0.48323 -1.95133 1.39164 1 1
206 1 6.17968 15.1815 2.62762 -9.66674 -0.623759 -4.07904 1 1
207 1 6.24 16.9371 0.891429 0 0 0 1 2
208 1 7.12325 16.0649 1.78228 -3.45233 -1.75993 2.67188 1 1
209 1 5.34414 17.804 1.79304 0.940557 -2.13754 2.75751 1 1
210 1 8.91324 14.2522 1.7845 5.17467 2.3599 -0.394918 1 1
211 1 7.13143 14.2629 0 0 0 0 1 3
212 1 8.02286 15.1543 0.891429 0 0 0 1 2
213 1 7.99065 16.8969 2.70725 2.9168 6.44402 -1.33899 1 1
214 1 8.91429 16.0457 0 0 0 0 1 3
215 1 9.78711 15.1876 2.69452 -3.06821 -1.27329 -0.700672 1 1
216 1 9.80572 16.9371 0.891429 0 0 0 1 2
217 1 8.92715 17.8143 1.78168 -5.24015 -0.492916 8.61192 1 1
218 1 10.6425 16.0566 1.7982 3.82992 -2.39481 4.37203 1 1
219 1 10.6971 14.2629 0 0 0 0 1 3
220 1 12.48 16.0457 0 0 0 0 1 3
221 1 11.5886 15.1543 0.891429 0 0 0 1 2
222 1 11.5575 16.9327 2.68618 -4.96887 10.8222 -1.05659 1 1
223 1 13.3877 15.1557 2.6888 0.294619 0.653922 0.794211 1 1
224 1 13.3714 16.9371 0.891429 0 0 0 1 2
225 1 12.446 17.8272 1.78137 4.03468 -2.03902 -0.390201 1 1
226 1 16.043 14.228 1.79855 1.37874 0.18842 -2.29861 1 1
227 1 14.328 16.0744 1.79676 9.74898 -0.973286 4.67174 1 1
228 1 14.2629 14.2629 0 0 0 0 1 3
229 1 16.0457 16.0457 0 0 0 0 1 3
230 1 15.1543 15.1543 0.891429 0 0 0 1 2
231 1 15.1729 16.9368 2.66234 -3.87267 4.28632 6.56304 1 1
232 1 16.9069 15.1094 2.63835 -0.332258 -1.66386 -1.99356 1 1
233 1 16.9371 16.9371 0.891429 0 0 0 1 2
234 1 17.8458 16.0166 1.75768 4.1468 4.45843 -4.29547 1 1
235 1 17.8286 14.2629 0 0 0 0 1 3
236 1 19.6114 16.0457 0 0 0 0 1 3
237 1 18.72 15.1543 0.891429 0 0 0 1 2
238 1 18.7301 16.9067 2.69398 -0.379326 4.32028 2.41098 1 1
239 1 20.4768 15.1552 2.72995 -10.3726 1.10073 5.57138 1 1
240 1 20.5029 16.9371 0.891429 0 0 0 1 2
241 1 19.608 17.8593 1.79901 3.25298 -2.39346 -1.13041 1 1
242 1 1.75182 17.8386 1.81657 -6.48888 -2.85146 -0.472867 1 1
243 1 0 17.8286 0 0 0 0 1 3
244 1 1.78286 19.6114 0 0 0 0 1 3
245 1 0.891429 18.72 0.891429 0 0 0 1 2
246 1 0.916712 20.4887 2.69147 3.24962 -6.39298 -1.84707 1 1
247 1 2.68911 18.7185 2.68311 -0.353233 3.67557 -10.5308 1 1
248 1 2.67429 20.5029 0.891429 0 0 0 1 2
249 1 3.59905 19.5628 1.80034 -7.37023 -1.10336 -1.63961 1 1
250 1 21.4145 19.5767 1.79041 0.851289 -3.72605 -4.87148 1 1
251 1 5.33022 21.3877 1.79671 4.53733 2.20424 -0.314594 1 1
252 1 3.56572 17.8286 0 0 0 0 1 3
253 1 5.34857 19.6114 0 0 0 0 1 3
254 1 4.45714 18.72 0.891429 0 0 0 1 2
255 1 4.4834 20.4749 2.6711 6.27609 0.568952 2.0607 1 1
256 1 6.23536 18.729 2.68798 -4.75503 3.01576 3.01288 1 1
257 1 6.24 20.5029 0.891429 0 0 0 1 2
258 1 7.14985 19.5686 1.79146 5.26721 -1.0916 -4.32661 1 1
259 1 7.13143 17.8286 0 0 0 0 1 3
260 1 8.02286 18.72 0.891429 0 0 0 1 2
261 1 8.0202 20.5331 2.64575 -9.25619 5.38406 3.18537 1 1
262 1 8.91429 19.6114 0 0 0 0 1 3
263 1 9.81719 18.6832 2.68007 -5.65196 -4.08359 -2.46499 1 1
264 1 9.80572 20.5029 0.891429 0 0 0 1 2
265 1 10.6532 19.6287 1.76842 2.8094 -4.26892 2.7783 1 1
266 1 12.4377 0.00223927 1.81851 -10.9183 0.075325 3.34367 1 1
267 1 10.6971 17.8286 0 0 0 0 1 3
268 1 12.48 19.6114 0 0 0 0 1 3
269 1 11.5886 18.72 0.891429 0 0 0 1 2
270 1 11.5584 20.5359 2.69546 2.75239 -3.65054 -8.64578 1 1
271 1 13.3559 18.7247 2.61608 -1.46895 -5.70634 -6.33683 1 1
272 1 13.3714 20.5029 0.891429 0 0 0 1 2
273 1 14.2668 19.6098 1.73421 -11.4438 -1.00857 -2.30288 1 1
274 1 16.031 17.828 1.77112 -2.87188 -2.56564 -2.47967 1 1
275 1 14.2629 17.8286 0 0 0 0 1 3
276 1 16.0457 19.6114 0 0 0 0 1 3
277 1 15.1543 18.72 0.891429 0 0 0 1 2
278 1 15.1109 20.5295 2.65644 -0.927066 6.17376 10.1725 1 1
279 1 16.9714 18.7198 2.6822 5.42025 -2.52857 -0.765105 1 1
280 1 16.9371 20.5029 0.891429 0 0 0 1 2
281 1 19.6335 21.3468 1.8313 10.4908 2.09866 -0.49534 1 1
282 1 17.8542 19.5858 1.80849 4.08752 2.69903 0.547007 1 1
283 1 17.8286 17.8286 0 0 0 0 1 3
284 1 19.6114 19.6114 0 0 0 0 1 3
285 1 18.72 18.72 0.891429 0 0 0 1 2
286 1 18.7212 20.4662 2.73499 -6.38427 4.50703 1.26084 1 1
287 1 20.5308 18.6812 2.67032 4.80612 -0.655735 3.28235 1 1
288 1 20.5029 20.5029 0.891429 0 0 0 1 2
289 1 1.82085 1.77226 3.59925 4.7655 -10.3483 3.12048 1 1
290 1 0.934709 0.867964 4.45243 -3.29751 -4.74171 2.74931 1 1
291 1 2.66808 2.69129 4.47404 2.78962 2.51606 4.97168 1 1
292 1 1.78438 0.0387747 5.35679 0.332385 -4.61389 1.19349 1 1
293 1 1.78444 3.6091 5.38018 1.16958 2.09672 1.31255 1 1
294 1 0.00588796 1.79279 5.37906 3.82669 -1.04289 0.627621 1 1
295 1 0.0139355 -0.0118863 3.582 2.94518 -7.10328 -1.18523 1 1
296 1 3.56412 1.7919 5.34182 -0.208706 5.47092 11.6698 1 1
297 1 5.31681 1.80202 3.53964 -1.9924 3.74718 -1.29892 1 1
298 1 4.47492 0.881555 4.46133 6.6409 -4.80131 -4.38374 1 1
299 1 6.25763 0.890783 6.26188 -9.08948 1.23527 9.73275 1 1
300 1 6.19623 2.62594 4.44652 8.20299 -6.69388 4.6275 1 1
301 1 3.58712 21.3621 3.59199 3.7542 -0.0117661 -1.22134 1 1
302 1 7.12164 21.3755 3.5714 -4.90305 5.38317 -0.235765 1 1
303 1 5.37414 -0.0188903 5.40571 -1.69836 -9.09626 3.92169 1 1
304 1 7.11123 3.53301 3.55385 -4.03118 0.4812 -3.42825 1 1
305 1 7.21458 1.75525 5.37265 -0.0898667 -8.75851 -2.77461 1 1
306 1 8.91073 1.75946 3.57606 -2.0763 0.826783 -2.80462 1 1
307 1 8.03193 0.867057 4.4667 6.41155 1.56611 -3.91024 1 1
308 1 8.0475 2.65014 6.28606 3.30867 -2.67836 4.98002 1 1
309 1 9.83046 0.834239 6.24818 -4.20999 8.07284 4.20521 1 1
310 1 9.83866 2.65153 4.48103 -2.70507 -2.8139 5.26342 1 1
311 1 10.6638 1.71133 5.35897 -0.23925 1.10783 -3.7059 1 1
312 1 12.4264 1.80719 3.58127 -7.34833 -6.68343 -8.22532 1 1
313 1 11.5833 0.838412 4.47483 3.54987 3.64614 -3.96052 1 1
314 1 11.576 2.60647 6.24437 6.53355 -5.72527 -0.170509 1 1
315 1 13.3245 2.65555 4.47542 4.54983 -12.1162 1.5841 1 1
316 1 13.3569 0.865546 6.23581 4.09458 -0.0975096 -2.06513 1 1
317 1 12.421 3.51197 5.40841 6.17713 -0.784916 2.61703 1 1
318 1 14.1995 1.72437 5.31793 -1.94077 1.64844 -0.472694 1 1
319 1 12.5061 21.3424 5.36737 -5.87918 -3.42888 4.21757 1 1
320 1 14.2044 3.6106 3.56383 -5.97944 4.15906 -5.28286 1 1
321 1 16.0165 1.77938 3.57411 -7.59925 4.6328 -3.81099 1 1
322 1 15.1152 0.879316 4.50633 -5.41884 -5.28371 -5.77639 1 1
323 1 15.1025 2.65118 6.2507 -0.159752 4.16126 -1.17885 1 1
324 1 16.8817 2.70283 4.44462 2.60551 -6.63505 -0.504325 1 1
325 1 17.7395 1.77131 5.37895 -0.575338 6.54487 3.67055 1 1
326 1 16.032 21.3464 5.40554 -3.00627 -1.09488 -1.74597 1 1
327 1 19.6088 1.80298 3.62455 1.61958 3.48358 8.10623 1 1
328 1 18.6857 0.896939 4.47592 1.34963 11.8517 -2.1889 1 1
329 1 20.5467 2.71404 4.48265 -2.43162 3.23707 1.05868 1 1
330 1 17.8031 21.3589 3.56913 1.44505 -0.332323 -2.02689 1 1
331 1 19.5951 21.4125 5.34095 -8.03617 5.64093 -1.28362 1 1
332 1 -0.0119784 3.57164 3.60516 -0.488534 3.60555 -1.8642 1 1
333 1 1.75032 5.35017 3.61361 5.25795 1.76639 -12.6067 1 1
334 1 0.905981 4.48618 4.50779 -1.58136 9.40815 -2.88989 1 1
335 1 2.66757 4.46496 6.24617 5.22086 8.17778 -0.302948 1 1
336 1 2.64866 6.1828 4.4559 -1.38083 -0.187972 -5.26437 1 1
337 1 3.53802 3.57571 3.53373 -2.80379 7.28806 -0.211542 1 1
338 1 21.361 5.33144 5.35271 9.24037 1.96349 -0.0544482 1 1
339 1 3.55948 5.36277 5.38637 -5.10563 -2.50118 1.38268 1 1
340 1 5.30495 3.56803 5.32522 -0.950999 -4.14974 13.7917 1 1
341 1 5.33221 5.32358 3.52294 -2.57961 -3.84649 5.79239 1 1
342 1 4.48871 4.49735 4.4282 8.84512 -6.59134 10.6011 1 1
343 1 4.44861 6.2611 6.23453 7.44537 2.39985 -4.47395 1 1
344 1 6.21138 6.2127 4.46055 1.53617 -2.62168 1.36035 1 1
345 1 7.12915 5.34239 5.34656 -10.4116 -3.40224 0.707228 1 1
346 1 5.35184 7.1409 5.36275 -2.58156 1.1959 -6.14373 1 1
347 1 6.25217 4.45581 6.26004 5.01238 0.939682 -1.4095 1 1
348 1 8.95858 3.49678 5.37685 -1.79476 7.69367 5.47411 1 1
349 1 10.7118 3.58801 3.56565 -0.617146 -2.97869 -6.09901 1 1
350 1 8.89671 5.36955 3.57497 -3.47442 -3.08988 -0.768082 1 1
351 1 8.0305 4.44327 4.46718 -3.30065 -4.00777 0.287078 1 1
352 1 8.03683 6.2648 6.24666 3.21352 -7.75095 1.64425 1 1
353 1 9.83223 4.42432 6.2458 -1.51527 -3.67762 0.397933 1 1
354 1 9.83344 6.19394 4.4238 8.28209 -2.18161 -1.3398 1 1
355 1 10.689 5.30715 5.32739 -4.94528 3.89626 0.250138 1 1
356 1 12.4962 5.33809 3.58809 2.90767 -8.72671 8.25215 1 1
357 1 11.5568 4.41918 4.48933 -8.10399 -8.81057 3.87887 1 1
358 1 13.3213 6.24632 4.47514 8.30159 -3.74216 -3.87992 1 1
359 1 14.2344 5.39527 5.37128 2.71386 0.774107 3.78829 1 1
360 1 16.0171 3.5192 5.37417 -0.845463 4.56927 6.8793 1 1
361 1 17.8157 3.61535 3.56626 8.40918 2.47177 0.0454059 1 1
362 1 16.0761 5.36146 3.56137 -6.21991 -1.4528 -2.24712 1 1
363 1 15.1401 4.49065 4.45793 -1.72123 -0.0249077 -1.33398 1 1
364 1 16.9587 6.28816 4.48672 7.13055 10.0604 0.0657297 1 1
365 1 16.8797 4.43337 6.26181 5.12819 -0.895542 -0.086278 1 1
366 1 16.0334 7.15328 5.37781 1.48361 3.05802 -7.5743 1 1
367 1 15.126 6.27996 6.29467 9.48304 0.879246 0.750092 1 1
368 1 19.5744 3.57324 5.32698 2.70312 2.30671 6.45625 1 1
369 1 17.7867 5.38557 5.41105 0.518943 0.667675 -2.48145 1 1
370 1 19.5817 5.40615 3.60189 -6.04554 2.44369 2.64478 1 1
371 1 18.662 4.45317 4.53056 3.85672 2.7006 -2.46488 1 1
372 1 20.4459 4.48211 6.18998 -4.37688 5.17963 2.47735 1 1
373 1 20.4898 6.24088 4.50577 4.53592 -3.11762 3.8221 1 1
374 1 19.6038 7.15725 5.35246 0.938583 -1.49188 -6.81135 1 1
375 1 21.3982 7.13526 3.61901 4.84537 -4.4172 -2.36443 1 1
376 1 1.77906 7.1439 5.36053 -0.727753 -0.767603 2.19668 1 1
377 1 1.76544 8.94727 3.59886 6.96047 0.712697 -0.817748 1 1
378 1 0.906975 8.04496 4.49425 -1.92667 1.39125 8.38885 1 1
379 1 2.68223 8.07159 6.25051 -1.94419 2.50512 -2.5853 1 1
380 1 0.878851 9.79588 6.26764 -3.45386 -5.18206 4.76161 1 1
381 1 2.69962 9.79368 4.50191 6.85196 -1.12156 0.11559 1 1
382 1 -0.0207512 8.87546 5.38662 -3.11823 4.12317 -0.334802 1 1
383 1 1.77795 10.6637 5.37329 8.76712 -3.64018 -3.77217 1 1
384 1 3.57145 7.10852 3.57643 4.21655 1.68947 -4.36446 1 1
385 1 7.17364 7.13547 3.54416 1.43205 -2.30936 4.00457 1 1
386 1 3.55607 10.7139 3.54819 4.84781 1.67039 -2.98085 1 1
387 1 3.60616 8.95058 5.39846 -0.437687 1.02886 -7.00063 1 1
388 1 5.36464 8.88832 3.53518 2.63635 6.27453 -0.22883 1 1
389 1 4.47344 8.02015 4.4436 7.51647 -8.70902 -8.54785 1 1
390 1 4.45051 9.87742 6.25224 -9.09075 7.90952 2.13593 1 1
391 1 6.21485 9.82747 4.48231 8.5396 0.199769 3.90613 1 1
392 1 8.93057 7.13119 5.33849 1.66677 -11.3137 1.24428 1 1
393 1 7.12828 8.94492 5.35507 -0.24843 0.491318 1.72121 1 1
394 1 8.89948 8.92706 3.56173 8.4252 -8.97436 10.2392 1 1
395 1 8.04086 8.03432 4.42362 -0.917809 0.455755 0.420729 1 1
396 1 9.8183 9.82427 4.50636 1.50376 3.46869 0.648107 1 1
397 1 10.7008 8.91074 5.34016 -5.22285 -11.1996 -6.28074 1 1
398 1 10.6926 10.6801 3.59521 -2.58912 -0.858575 -0.926123 1 1
399 1 9.80387 8.02529 6.2587 0.581024 0.707324 -1.70022 1 1
400 1 12.454 7.14286 5.40953 -6.00307 -11.1719 -4.44341 1 1
401 1 10.7348 7.15524 3.55118 -1.1482 2.63666 3.83002 1 1
402 1 12.513 8.91094 3.58775 -2.85341 -4.36384 -1.72346 1 1
403 1 11.5855 8.05891 4.44802 -3.73633 -2.77752 0.468295 1 1
404 1 13.401 9.84739 4.45929 -3.00064 -8.3553 -4.45534 1 1
405 1 14.2424 7.11252 3.59619 3.82824 2.15971 0.287839 1 1
406 1 14.2764 8.91372 5.36193 2.72764 0.303314 -9.97461 1 1
407 1 17.8039 7.11851 3.56697 -1.33534 -0.335192 -0.360047 1 1
408 1 16.0217 8.89062 3.57707 -3.99044 3.09494 -2.66963 1 1
409 1 15.1365 7.97698 4.49245 -3.14008 -2.78848 -0.940129 1 1
410 1 16.9724 9.75338 4.46497 -10.7937 -3.68195 4.29034 1 1
411 1 16.1304 10.6804 5.37958 -2.49152 6.41032 4.60287 1 1
412 1 16.8977 8.0633 6.26453 -1.53981 2.75977 7.55479 1 1
413 1 17.8301 8.92422 5.36923 -0.17608 -0.0233275 5.06374 1 1
414 1 19.6398 8.91063 3.58079 3.35797 -4.35889 -6.90642 1 1
415 1 18.7294 8.05848 4.42238 1.31822 -1.95294 -0.806022 1 1
416 1 18.7031 9.79065 6.2718 -3.7729 2.41371 1.06709 1 1
417 1 20.5112 9.78339 4.46557 1.75606 -2.84659 -7.54771 1 1
418 1 20.5045 8.01014 6.26446 1.98615 -16.9673 -4.90969 1 1
419 1 19.5864 10.673 5.36908 -1.36938 2.14699 -4.88157 1 1
420 1 21.3788 10.7061 3.61131 -1.60683 6.84377 -6.22346 1 1
421 1 1.78999 12.5072 3.56114 -6.90811 3.35837 -5.88343 1 1
422 1 0.8853 11.5939 4.48157 -4.15821 -5.27553 0.750071 1 1
423 1 2.66909 11.5966 6.29424 4.12249 -4.7899 12.9329 1 1
424 1 0.872612 13.3289 6.28669 -7.4644 -1.57192 8.11511 1 1
425 1 2.67629 13.4056 4.44901 3.60759 0.081923 -2.68972 1 1
426 1 21.3488 12.4247 5.42331 4.17828 0.333814 -2.41629 1 1
427 1 5.36243 10.7523 5.38903 4.08021 0.476071 -3.1141 1 1
428 1 3.51696 14.2748 3.57257 4.1258 -6.84062 -0.187837 1 1
429 1 3.54758 12.481 5.35512 1.07499 -1.51679 -2.34588 1 1
430 1 5.33399 12.5503 3.56639 0.802406 5.8488 -6.24542 1 1
431 1 4.43901 11.5946 4.49001 -6.85505 -4.28295 2.24179 1 1
432 1 6.2284 13.3848 4.44199 6.77192 6.98392 -4.8779 1 1
433 1 7.07835 14.3265 3.55971 6.50647 5.58163 7.66031 1 1
434 1 6.24708 11.605 6.27281 -8.67621 -2.2462 0.0246848 1 1
435 1 7.13552 10.6974 3.58236 4.0905 -1.92363 -7.48482 1 1
436 1 7.11311 12.5164 5.3548 2.43583 -1.23757 0.673937 1 1
437 1 8.89407 10.7181 5.38734 8.63349 -6.76606 -1.60477 1 1
438 1 8.92578 12.4655 3.55392 8.26031 5.12081 -3.92871 1 1
439 1 8.01394 11.602 4.44614 -4.15279 0.608388 0.773458 1 1
440 1 9.76989 11.6489 6.28422 3.5299 11.1996 -4.30536 1 1
441 1 7.9794 13.3917 6.23407 -3.31112 7.22506 -10.2835 1 1
442 1 9.76655 13.4355 4.50301 -0.983347 -8.05765 -3.68476 1 1
443 1 10.669 14.2938 3.59608 3.73841 5.6509 2.14883 1 1
444 1 12.4866 10.7407 5.30094 2.93678 5.51264 -4.98189 1 1
445 1 10.6765 12.5025 5.33435 6.94298 3.28775 -8.17986 1 1
446 1 12.4529 12.47 3.55796 -3.62774 -6.80136 0.574712 1 1
447 1 11.5946 11.5975 4.44539 -6.34989 -7.85329 -2.19009 1 1
448 1 13.4009 11.5638 6.2142 -1.23141 3.7971 -2.61063 1 1
449 1 11.6031 13.373 6.2528 -0.115656 4.90822 1.07388 1 1
450 1 13.4176 13.2903 4.46387 0.443759 1.28001 -0.69467 1 1
451 1 14.2885 10.6901 3.56588 4.59365 -0.523537 1.5751 1 1
452 1 14.2804 12.4152 5.33662 -1.81218 -0.803163 -0.771594 1 1
453 1 16.081 12.402 3.6011 4.13047 -4.43531 -5.31806 1 1
454 1 15.1961 11.5614 4.48856 5.08942 1.86644 -2.91962 1 1
455 1 16.9854 11.5545 6.28897 4.91361 -7.00413 -0.19816 1 1
456 1 16.9627 13.3268 4.45426 1.6652 4.88619 2.13399 1 1
457 1 17.8813 12.4286 5.36313 4.43466 -0.650724 -8.99951 1 1
458 1 15.1447 13.3904 6.20821 9.49272 1.46534 -2.71571 1 1
459 1 17.8137 10.6396 3.57306 1.17707 -3.21331 -1.04184 1 1
460 1 19.5971 12.4616 3.5652 -0.774907 0.34685 1.52382 1 1
461 1 18.7404 11.5444 4.44686 3.78061 1.66231 -2.33155 1 1
462 1 18.6867 13.321 6.27938 2.10944 -1.45592 4.42232 1 1
463 1 20.5269 13.3188 4.47487 -2.02569 6.76412 -8.95237 1 1
464 1 20.4866 11.5532 6.29442 1.2533 -1.56233 0.601202 1 1
465 1 1.7884 14.2847 5.31673 1.42207 -3.17421 3.67804 1 1
466 1 1.72668 16.0546 3.55979 -5.78334 11.2748 -0.90366 1 1
467 1 0.847266 15.1473 4.47079 2.44763 -3.03275 -0.288412 1 1
468 1 2.68414 15.1692 6.23032 -6.70658 5.8634 0.58496 1 1
469 1 2.69071 16.9705 4.43336 1.01575 5.23339 -6.4294 1 1
470 1 21.3903 16.0377 5.39686 -0.589702 2.86367 -1.63082 1 1
471 1 21.366 14.2632 3.60507 -1.46318 3.22563 -6.30121 1 1
472 1 1.80774 17.8543 5.35166 10.286 2.2119 -7.54721 1 1
473 1 5.336 14.2701 5.32026 -4.74995 1.19237 -4.58506 1 1
474 1 3.56151 16.0483 5.35721 2.56849 -8.40929 -7.0443 1 1
475 1 5.3302 16.0177 3.52134 -3.60672 1.18475 -2.92903 1 1
476 1 4.40598 15.1861 4.46428 8.35016 -4.00948 4.97422 1 1
477 1 4.46642 16.9656 6.2381 -1.27794 4.30664 -0.228288 1 1
478 1 6.268 15.181 6.25445 7.14884 0.854383 1.62108 1 1
479 1 6.27682 16.8976 4.41932 1.52681 -2.80524 -2.73053 1 1
480 1 7.10527 16.0559 5.34429 -7.98819 -1.24152 -2.24922 1 1
481 1 8.85552 14.3011 5.38429 -4.457 5.55135 1.41072 1 1
482 1 8.95146 16.077 3.58097 -9.16307 -0.869118 -3.32751 1 1
483 1 8.02341 15.1649 4.47842 -5.49075 1.77617 -5.78416 1 1
484 1 7.99686 16.9409 6.26529 -5.70872 -0.0980405 3.94084 1 1
485 1 9.78583 15.1182 6.2891 -2.50561 2.75539 -3.8606 1 1
486 1 9.78677 16.9944 4.48009 6.89343 5.81718 -2.17874 1 1
487 1 10.6958 16.036 5.37901 1.00131 1.33536 1.85803 1 1
488 1 8.87551 17.8468 5.38094 -1.23801 -2.9076 3.12852 1 1
489 1 10.6768 17.8171 3.59949 2.515 4.24852 6.0495 1 1
490 1 12.5126 14.2455 5.35905 3.20065 5.24748 1.61248 1 1
491 1 12.4969 16.0328 3.59081 0.427042 -3.82674 -5.7991 1 1
492 1 11.6098 15.1751 4.45913 3.68634 6.41452 -10.5832 1 1
493 1 11.5554 16.9442 6.21384 -3.71353 -2.78414 1.51329 1 1
494 1 13.3659 16.954 4.46173 -8.09032 1.82038 -3.4956 1 1
495 1 13.3654 15.191 6.25143 0.433348 -2.94475 -5.13 1 1
496 1 12.4663 17.8267 5.34154 -2.19589 10.3179 -0.282923 1 1
497 1 14.3105 14.2148 3.64838 12.2801 -2.00688 0.679475 1 1
498 1 16.1221 14.2516 5.33353 2.92537 -1.93754 -3.70383 1 1
499 1 17.8168 14.1804 3.59908 -3.8246 -0.549347 1.56863 1 1
500 1 14.2824 16.0661 5.3734 8.58522 -2.69186 10.6204 1 1
501 1 14.2114 17.8334 3.53711 -6.32088 -2.24375 -5.84252 1 1
502 1 16.032 16.0391 3.58259 -7.75833 5.22289 -3.11332 1 1
503 1 15.1491 15.1487 4.46151 -4.74465 -1.12481 -4.24111 1 1
504 1 16.9538 16.9129 4.48797 -3.61055 2.30249 -0.516615 1 1
505 1 16.9608 15.1418 6.22863 -1.03828 2.74492 2.33301 1 1
506 1 17.8377 15.9996 5.3852 0.881063 -3.29746 2.76877 1 1
507 1 19.5564 14.2391 5.39003 10.6299 3.32772 3.60819 1 1
508 1 19.5931 15.9944 3.61707 6.38793 5.81912 6.38595 1 1
509 1 18.702 15.117 4.46997 -2.29977 3.06507 4.82198 1 1
510 1 20.4915 16.9118 4.4445 0.415068 1.24626 -8.10702 1 1
511 1 19.619 17.8111 5.38854 0.612561 1.05544 -8.31139 1 1
512 1 20.465 15.1299 6.23875 -10.5281 -1.43426 -3.87998 1 1
513 1 1.79313 19.5847 3.55416 -3.32755 1.44618 4.30812 1 1
514 1 0.883525 18.6861 4.43525 -1.83431 1.89048 -8.87334 1 1
515 1 0.893098 20.4902 6.25683 -10.4036 -10.8446 2.12234 1 1
516 1 2.66546 20.4773 4.4721 -2.67697 -3.60173 -3.86159 1 1
517 1 21.3782 17.7804 3.59445 -2.61967 0.107519 2.67418 1 1
518 1 0.0154673 19.5885 5.33115 0.322463 2.6785 1.1952 1 1
519 1 2.68431 18.7384 6.24721 -2.28849 -1.2249 -0.5068 1 1
520 1 5.37274 17.8767 5.37787 -1.28771 -6.42068 -5.59716 1 1
521 1 3.57122 17.8113 3.578 -5.08753 2.18167 -8.92532 1 1
522 1 3.60888 19.6674 5.38 2.64474 -4.46147 -5.96547 1 1
523 1 5.33795 19.6214 3.60367 -3.10331 -2.09749 -0.752369 1 1
524 1 4.4488 18.7601 4.47062 -2.70391 -1.60912 -0.0333083 1 1
525 1 4.45113 20.5448 6.27303 -9.62416 2.29751 -0.366877 1 1
526 1 6.20341 18.7545 6.25433 4.81581 -0.0557417 -7.03936 1 1
527 1 6.29918 20.4868 4.49472 4.92896 6.00507 -3.3723 1 1
528 1 7.11037 17.7972 3.52508 -7.96183 -6.11761 4.62011 1 1
529 1 7.14545 19.5781 5.39125 3.9138 -2.91838 -4.08923 1 1
530 1 8.92141 21.343 5.35238 1.88816 -2.73436 -1.46261 1 1
531 1 8.88912 19.6039 3.54606 4.25725 1.12127 -0.112069 1 1
532 1 8.01434 18.7058 4.48128 0.930775 -8.49221 5.49034 1 1
533 1 8.01146 20.4475 6.2819 8.62938 -5.35478 -3.19417 1 1
534 1 9.79074 18.697 6.26484 6.96009 -8.59799 4.98636 1 1
535 1 9.79695 20.4743 4.45639 -2.77217 7.01746 7.8891 1 1
536 1 10.6855 19.5894 5.34294 1.24591 3.62619 1.12711 1 1
537 1 10.6907 -0.0116134 3.59112 -6.39677 -4.49722 2.36627 1 1
538 1 12.434 19.6538 3.57583 1.04692 -6.72909 -1.77219 1 1
539 1 11.6 18.6945 4.45192 -7.07071 2.43298 3.43391 1 1
540 1 13.3569 18.687 6.23979 -0.656008 1.24785 9.83612 1 1
541 1 13.327 20.5037 4.4527 -0.641038 0.490735 4.73253 1 1
542 1 16.0445 17.8152 5.37592 -1.34581 -1.76697 4.61137 1 1
543 1 14.2147 21.4185 3.59788 5.32477 -3.40688 -6.22412 1 1
544 1 14.2213 19.59 5.31954 -5.41096 -0.707654 5.35277 1 1
545 1 16.013 19.5888 3.5435 -4.33808 -0.935023 -0.431979 1 1
546 1 15.1011 18.6947 4.39863 -7.06321 7.87531 -1.09991 1 1
547 1 16.8919 18.7286 6.23868 5.79991 -0.569741 -5.14006 1 1
548 1 16.8936 20.5089 4.44663 -1.077 -8.26781 2.01445 1 1
549 1 17.8029 19.6094 5.35377 -7.02601 -1.62854 0.632249 1 1
550 1 17.8375 17.8053 3.61452 -2.27303 2.6149 6.60991 1 1
551 1 19.5901 19.6049 3.59475 0.87829 -3.95645 4.42835 1 1
552 1 18.7233 18.716 4.47412 0.532935 -1.55686 0.207541 1 1
553 1 18.7099 20.4895 6.25988 6.94427 11.6722 -1.26405 1 1
554 1 20.5262 18.7567 6.25576 -1.66464 -1.34938 -1.81305 1 1
555 1 20.4961 20.4948 4.43624 4.91244 -0.472859 -3.33775 1 1
556 1 2.65008 0.935656 6.24985 1.12124 -3.12393 -2.46257 1 1