ITEM: TIMESTEP
2250
ITEM: NUMBER OF ATOMS
2952
ITEM: BOX BOUNDS pp pp mm
0.0000000000000000e+00 2.1394294200000001e+01
0.0000000000000000e+00 2.1394294200000001e+01
-4.4571446250000002e-01 5.3485735500000004e+01
ITEM: ATOMS id type x y z vx vy vz v_is_diamond c_structure_type
1 1 0 0 0 0 0 0 1 3
2 1 1.78286 1.78286 0 0 0 0 1 3
3 1 0.891429 0.891429 0.891429 0 0 0 1 2
4 1 0.880412 2.72528 2.66101 2.37611 -3.26828 3.02954 1 1
5 1 2.66754 0.874522 2.68869 7.18352 -4.71204 0.861928 1 1
6 1 2.67429 2.67429 0.891429 0 0 0 1 2
7 1 -0.00115191 1.77401 1.72955 3.77898 -1.86538 2.50659 1 1
8 1 1.78375 -0.0169897 1.80198 0.0850679 7.17668 1.92777 1 1
9 1 1.7842 3.56486 1.79183 0.607156 -0.746931 -0.500785 1 1
10 1 3.55074 1.77805 1.76916 -0.977587 -3.65241 3.42104 1 1
11 1 3.56572 0 0 0 0 0 1 3
12 1 5.34857 1.78286 0 0 0 0 1 3
13 1 4.45714 0.891429 0.891429 0 0 0 1 2
14 1 4.47345 2.62563 2.67212 1.44316 -7.79492 2.69392 1 1
15 1 6.26282 0.885559 2.74479 0.951419 -3.25835 4.34449 1 1
16 1 6.24 2.67429 0.891429 0 0 0 1 2
17 1 7.15694 1.74791 1.82085 8.39851 -5.30975 2.40656 1 1
18 1 7.13143 0 0 0 0 0 1 3
19 1 8.02286 0.891429 0.891429 0 0 0 1 2
20 1 8.01945 2.65076 2.71185 -2.63078 -5.743 0.282444 1 1
21 1 8.91429 1.78286 0 0 0 0 1 3
22 1 9.73961 0.889391 2.69026 -3.70547 -3.6738 -1.56384 1 1
23 1 9.80572 2.67429 0.891429 0 0 0 1 2
24 1 8.89417 -0.0354194 1.75106 0.233095 -0.202624 0.297905 1 1
25 1 10.67 1.75687 1.82309 -1.99338 5.69131 -5.78335 1 1
26 1 10.6971 0 0 0 0 0 1 3
27 1 12.48 1.78286 0 0 0 0 1 3
28 1 11.5886 0.891429 0.891429 0 0 0 1 2
29 1 11.5946 2.6444 2.72958 4.88368 5.64434 -2.95486 1 1
30 1 13.3619 0.978617 2.70159 1.50794 3.64416 -2.2575 1 1
31 1 13.3714 2.67429 0.891429 0 0 0 1 2
32 1 14.2669 1.79119 1.74575 3.08 -4.39241 3.41678 1 1
33 1 14.2629 0 0 0 0 0 1 3
34 1 16.0457 1.78286 0 0 0 0 1 3
35 1 15.1543 0.891429 0.891429 0 0 0 1 2
36 1 15.1577 2.6938 2.71236 -1.88898 -1.74152 -1.0561 1 1
37 1 16.9025 0.850451 2.68517 0.0228177 -7.21483 -0.108017 1 1
38 1 16.9371 2.67429 0.891429 0 0 0 1 2
39 1 16.0336 0.00590351 1.80082 2.30344 3.82971 2.68326 1 1
40 1 17.8315 1.73988 1.78761 8.81417 6.86077 4.34705 1 1
41 1 17.8286 0 0 0 0 0 1 3
42 1 19.6114 1.78286 0 0 0 0 1 3
43 1 18.72 0.891429 0.891429 0 0 0 1 2
44 1 18.7073 2.64995 2.62825 12.4417 4.78245 -0.411338 1 1
45 1 20.5075 0.934224 2.65 1.18331 3.22652 2.98887 1 1
46 1 20.5029 2.67429 0.891429 0 0 0 1 2
47 1 0 3.56572 0 0 0 0 1 3
48 1 1.78286 5.34857 0 0 0 0 1 3
49 1 0.891429 4.45714 0.891429 0 0 0 1 2
50 1 0.930925 6.27581 2.72781 3.35892 -7.59453 3.94617 1 1
51 1 2.69618 4.4504 2.69495 0.164372 5.68269 -6.21761 1 1
52 1 2.67429 6.24 0.891429 0 0 0 1 2
53 1 3.60849 5.37346 1.7754 -6.71382 -3.1082 9.62027 1 1
54 1 5.34549 3.52741 1.75915 -0.453482 -0.583899 -0.220638 1 1
55 1 3.56572 3.56572 0 0 0 0 1 3
56 1 5.34857 5.34857 0 0 0 0 1 3
57 1 4.45714 4.45714 0.891429 0 0 0 1 2
58 1 4.48395 6.26967 2.69205 -5.88946 -0.0638135 -6.17886 1 1
59 1 6.21202 4.43001 2.68293 3.69339 -6.92216 -12.3479 1 1
60 1 6.24 6.24 0.891429 0 0 0 1 2
61 1 5.32511 7.13297 1.77506 -10.8824 -2.46492 5.89129 1 1
62 1 7.10888 5.34397 1.80385 -1.99386 -5.9596 -0.955694 1 1
63 1 7.13143 3.56572 0 0 0 0 1 3
64 1 8.88231 3.52394 1.74331 0.492549 4.59187 -2.89741 1 1
65 1 8.02286 4.45714 0.891429 0 0 0 1 2
66 1 8.04118 6.18018 2.66955 -0.143092 0.24326 -1.27892 1 1
67 1 8.91429 5.34857 0 0 0 0 1 3
68 1 9.81426 4.41072 2.6835 -3.51672 -2.67959 5.07401 1 1
69 1 9.80572 6.24 0.891429 0 0 0 1 2
70 1 10.7114 5.32483 1.80716 -7.22027 5.67792 -3.66134 1 1
71 1 12.4638 3.52651 1.77978 1.1158 4.21818 7.08331 1 1
72 1 10.6971 3.56572 0 0 0 0 1 3
73 1 12.48 5.34857 0 0 0 0 1 3
74 1 11.5886 4.45714 0.891429 0 0 0 1 2
75 1 11.6276 6.21814 2.66588 2.54464 11.5207 2.02652 1 1
76 1 13.3707 4.4117 2.68988 3.84101 -7.17887 -3.31033 1 1
77 1 13.3714 6.24 0.891429 0 0 0 1 2
78 1 14.2649 5.34928 1.7701 -1.90254 -0.763222 -2.1223 1 1
79 1 16.0341 3.56768 1.79307 8.32903 -0.402788 -5.46791 1 1
80 1 14.2629 3.56572 0 0 0 0 1 3
81 1 16.0457 5.34857 0 0 0 0 1 3
82 1 15.1543 4.45714 0.891429 0 0 0 1 2
83 1 15.1489 6.2377 2.67305 3.61525 1.44599 6.15096 1 1
84 1 16.8728 4.48291 2.67811 5.12299 3.36234 -3.97284 1 1
85 1 16.9371 6.24 0.891429 0 0 0 1 2
86 1 17.8217 5.34607 1.80639 0.647354 -0.79273 -3.26821 1 1
87 1 19.5879 3.56989 1.79464 6.24159 -2.01654 3.61063 1 1
88 1 -0.016576 5.35467 1.79573 5.65067 -11.1913 3.99201 1 1
89 1 17.8286 3.56572 0 0 0 0 1 3
90 1 19.6114 5.34857 0 0 0 0 1 3
91 1 18.72 4.45714 0.891429 0 0 0 1 2
92 1 18.6983 6.28857 2.66448 3.8716 4.27599 2.15983 1 1
93 1 20.5177 4.46873 2.70112 0.541533 1.68957 7.13996 1 1
94 1 20.5029 6.24 0.891429 0 0 0 1 2
95 1 19.5913 7.15539 1.75642 -0.791977 8.26499 -0.484443 1 1
96 1 1.79768 7.16167 1.77469 3.68264 -12.0366 4.88548 1 1
97 1 0 7.13143 0 0 0 0 1 3
98 1 0.891429 8.02286 0.891429 0 0 0 1 2
99 1 2.67216 8.06669 2.68922 -3.93557 -5.68993 1.3699 1 1
100 1 1.78286 8.91429 0 0 0 0 1 3
101 1 0.914312 9.80363 2.67316 -1.6679 2.32301 5.63881 1 1
102 1 2.67429 9.80572 0.891429 0 0 0 1 2
103 1 1.77252 10.7083 1.78548 0.943949 -2.24184 1.67794 1 1
104 1 3.57228 8.96145 1.79431 -0.747818 -4.10456 3.61337 1 1
105 1 3.56572 7.13143 0 0 0 0 1 3
106 1 4.45714 8.02286 0.891429 0 0 0 1 2
107 1 6.23486 7.99695 2.61257 -0.985248 2.90894 -8.073 1 1
108 1 5.34857 8.91429 0 0 0 0 1 3
109 1 4.45461 9.80145 2.68598 4.75068 8.11151 4.73426 1 1
110 1 6.24 9.80572 0.891429 0 0 0 1 2
111 1 7.13174 8.93804 1.78502 -12.9687 3.37744 4.00191 1 1
112 1 8.91136 7.10118 1.77217 -0.29545 -1.91418 3.99879 1 1
113 1 7.13143 7.13143 0 0 0 0 1 3
114 1 8.02286 8.02286 0.891429 0 0 0 1 2
115 1 9.79752 8.01435 2.6495 -7.75289 -3.74261 7.20084 1 1
116 1 8.02258 9.81625 2.67262 4.16085 -2.65 0.586322 1 1
117 1 8.91429 8.91429 0 0 0 0 1 3
118 1 9.80572 9.80572 0.891429 0 0 0 1 2
119 1 10.6798 8.9076 1.78623 0.45392 -5.92015 -3.46297 1 1
120 1 12.4931 7.09597 1.81566 3.60143 -1.72283 -4.5463 1 1
121 1 10.6971 7.13143 0 0 0 0 1 3
122 1 11.5886 8.02286 0.891429 0 0 0 1 2
123 1 13.4085 7.98222 2.68139 -7.1904 -13.9393 2.61039 1 1
124 1 12.48 8.91429 0 0 0 0 1 3
125 1 11.5836 9.8057 2.64597 2.34303 -4.39028 3.96648 1 1
126 1 13.3714 9.80572 0.891429 0 0 0 1 2
127 1 12.4712 10.7106 1.78351 -1.59723 2.38587 -1.76585 1 1
128 1 16.0237 7.11644 1.77082 4.67642 -0.922091 8.46108 1 1
129 1 14.2688 8.87887 1.73211 2.27881 2.75831 2.3248 1 1
130 1 14.2629 7.13143 0 0 0 0 1 3
131 1 15.1543 8.02286 0.891429 0 0 0 1 2
132 1 16.9762 7.96739 2.68323 -6.48504 -10.5901 7.40863 1 1
133 1 16.0457 8.91429 0 0 0 0 1 3
134 1 15.1796 9.7824 2.63873 -1.8706 -2.85932 4.21708 1 1
135 1 16.9371 9.80572 0.891429 0 0 0 1 2
136 1 16.0551 10.6794 1.76116 -7.99168 2.51767 2.21193 1 1
137 1 17.8521 8.91365 1.7771 4.35724 -4.55529 -6.11498 1 1
138 1 21.4199 8.92147 1.78243 -4.35645 5.25874 0.686818 1 1
139 1 17.8286 7.13143 0 0 0 0 1 3
140 1 18.72 8.02286 0.891429 0 0 0 1 2
141 1 20.4982 8.05543 2.64556 -4.72678 -6.62341 10.0916 1 1
142 1 19.6114 8.91429 0 0 0 0 1 3
143 1 18.7592 9.81938 2.64408 7.47296 -1.21129 1.9284 1 1
144 1 20.5029 9.80572 0.891429 0 0 0 1 2
145 1 0 10.6971 0 0 0 0 1 3
146 1 1.78286 12.48 0 0 0 0 1 3
147 1 0.891429 11.5886 0.891429 0 0 0 1 2
148 1 2.65873 11.5545 2.72076 -1.80741 1.4088 1.64304 1 1
149 1 0.883932 13.3338 2.68317 -1.32231 0.708899 2.04343 1 1
150 1 2.67429 13.3714 0.891429 0 0 0 1 2
151 1 -0.041186 12.4617 1.81649 3.90383 -2.25782 8.66376 1 1
152 1 5.33199 10.7262 1.77263 -1.38676 -7.14217 4.5842 1 1
153 1 3.53882 12.4699 1.78594 -4.60714 -3.34294 -0.145467 1 1
154 1 3.56572 10.6971 0 0 0 0 1 3
155 1 5.34857 12.48 0 0 0 0 1 3
156 1 4.45714 11.5886 0.891429 0 0 0 1 2
157 1 6.27533 11.6208 2.65633 5.45626 3.81648 0.621915 1 1
158 1 4.45165 13.3601 2.6908 -9.71228 1.85045 2.64266 1 1
159 1 6.24 13.3714 0.891429 0 0 0 1 2
160 1 5.37848 14.2906 1.7635 -0.596091 -10.834 0.507299 1 1
161 1 8.94942 10.696 1.76354 -7.987 6.05854 2.13254 1 1
162 1 7.16154 12.5049 1.74591 -3.33199 0.440535 2.08542 1 1
163 1 7.13143 10.6971 0 0 0 0 1 3
164 1 8.02286 11.5886 0.891429 0 0 0 1 2
165 1 8.91429 12.48 0 0 0 0 1 3
166 1 9.81917 11.5862 2.65144 -5.83834 4.89834 8.46007 1 1
167 1 8.02424 13.3689 2.6865 2.73827 -2.29372 2.65856 1 1
168 1 9.80572 13.3714 0.891429 0 0 0 1 2
169 1 10.6711 12.5057 1.75476 -0.76418 4.37359 1.17654 1 1
170 1 10.6971 10.6971 0 0 0 0 1 3
171 1 12.48 12.48 0 0 0 0 1 3
172 1 11.5886 11.5886 0.891429 0 0 0 1 2
173 1 13.369 11.5928 2.65387 -4.14395 -6.69451 2.72433 1 1
174 1 11.586 13.3786 2.69962 -13.3259 8.77231 -3.78727 1 1
175 1 13.3714 13.3714 0.891429 0 0 0 1 2
176 1 12.4602 14.2875 1.76671 -1.03882 -0.595849 -8.47488 1 1
177 1 14.2891 12.4949 1.78147 -2.04734 1.16021 1.21978 1 1
178 1 14.2629 10.6971 0 0 0 0 1 3
179 1 16.0457 12.48 0 0 0 0 1 3
180 1 15.1543 11.5886 0.891429 0 0 0 1 2
181 1 16.9608 11.5847 2.62133 5.41565 1.88085 0.861066 1 1
182 1 15.1339 13.4154 2.65357 4.02196 -1.47545 2.77592 1 1
183 1 16.9371 13.3714 0.891429 0 0 0 1 2
184 1 17.8699 12.4457 1.74942 4.60827 3.20028 0.24746 1 1
185 1 19.6508 10.7127 1.80392 1.26123 3.03601 3.3866 1 1
186 1 17.8286 10.6971 0 0 0 0 1 3
187 1 19.6114 12.48 0 0 0 0 1 3
188 1 18.72 11.5886 0.891429 0 0 0 1 2
189 1 20.528 11.5542 2.6903 -3.04558 7.63068 -2.5566 1 1
190 1 18.7279 13.3119 2.69908 -7.12123 -4.56417 -5.97375 1 1
191 1 20.5029 13.3714 0.891429 0 0 0 1 2
192 1 19.5921 14.2405 1.82077 5.47313 6.98066 0.277326 1 1
193 1 1.78918 14.2538 1.77557 -5.42418 4.65416 4.25522 1 1
194 1 0 14.2629 0 0 0 0 1 3
195 1 1.78286 16.0457 0 0 0 0 1 3
196 1 0.891429 15.1543 0.891429 0 0 0 1 2
197 1 0.908888 16.9506 2.66919 -6.14434 -4.55519 2.95468 1 1
198 1 2.68334 15.1878 2.67551 0.768491 1.9641 -6.99046 1 1
199 1 2.67429 16.9371 0.891429 0 0 0 1 2
200 1 21.4206 16.0759 1.81445 6.12739 -2.80587 2.30975 1 1
201 1 3.59012 16.0466 1.81848 1.15543 -3.01539 -7.74803 1 1
202 1 3.56572 14.2629 0 0 0 0 1 3
203 1 5.34857 16.0457 0 0 0 0 1 3
204 1 4.45714 15.1543 0.891429 0 0 0 1 2
205 1 4.52399 16.97 2.64801 1.79015 -2.91365 -5.49449 1 1
206 1 6.24732 15.1615 2.67554 4.10308 -0.998058 1.54376 1 1
207 1 6.24 16.9371 0.891429 0 0 0 1 2
208 1 7.09077 16.07 1.82429 3.59419 2.05599 1.07767 1 1
209 1 5.36349 17.8615 1.75019 -3.25474 -0.462485 -1.30547 1 1
210 1 8.93564 14.2652 1.78467 2.55234 -4.85154 -4.39725 1 1
211 1 7.13143 14.2629 0 0 0 0 1 3
212 1 8.02286 15.1543 0.891429 0 0 0 1 2
213 1 8.03892 16.9789 2.67231 -1.58617 1.71732 -4.86708 1 1
214 1 8.91429 16.0457 0 0 0 0 1 3
215 1 9.81048 15.1556 2.66538 3.1904 -0.624468 -1.3575 1 1
216 1 9.80572 16.9371 0.891429 0 0 0 1 2
217 1 8.89364 17.8134 1.79467 3.33522 -3.43228 -4.83043 1 1
218 1 10.7092 16.0891 1.81001 -2.57609 13.2253 3.02747 1 1
219 1 10.6971 14.2629 0 0 0 0 1 3
220 1 12.48 16.0457 0 0 0 0 1 3
221 1 11.5886 15.1543 0.891429 0 0 0 1 2
222 1 11.5603 16.9813 2.7221 6.49094 1.74509 8.16496 1 1
223 1 13.3622 15.1785 2.6714 3.52243 2.88042 1.23459 1 1
224 1 13.3714 16.9371 0.891429 0 0 0 1 2
225 1 12.467 17.8423 1.80106 5.1611 2.64622 -0.0854298 1 1
226 1 16.0567 14.2506 1.75468 -4.06899 -8.75761 4.71283 1 1
227 1 14.2572 16.0767 1.78253 -0.946344 0.558941 4.92237 1 1
228 1 14.2629 14.2629 0 0 0 0 1 3
229 1 16.0457 16.0457 0 0 0 0 1 3
230 1 15.1543 15.1543 0.891429 0 0 0 1 2
231 1 15.1155 16.9896 2.70368 -3.72219 4.16384 3.08349 1 1
232 1 16.9348 15.1478 2.69207 -5.67665 9.49449 8.27086 1 1
233 1 16.9371 16.9371 0.891429 0 0 0 1 2
234 1 17.8187 16.0503 1.79357 -0.970262 -3.75599 -2.72459 1 1
235 1 17.8286 14.2629 0 0 0 0 1 3
236 1 19.6114 16.0457 0 0 0 0 1 3
237 1 18.72 15.1543 0.891429 0 0 0 1 2
238 1 18.7144 16.9247 2.65512 -2.8285 1.81662 3.87173 1 1
239 1 20.5144 15.0898 2.66511 3.11146 3.40149 1.98872 1 1
240 1 20.5029 16.9371 0.891429 0 0 0 1 2
241 1 19.5739 17.8048 1.7709 -6.30157 3.64864 -4.24034 1 1
242 1 1.76504 17.8337 1.8226 2.70762 6.44443 -1.80332 1 1
243 1 0 17.8286 0 0 0 0 1 3
244 1 1.78286 19.6114 0 0 0 0 1 3
245 1 0.891429 18.72 0.891429 0 0 0 1 2
246 1 0.8971 20.4833 2.67991 0.901939 2.3284 1.02032 1 1
247 1 2.71753 18.7027 2.67898 -3.32633 0.761973 2.82284 1 1
248 1 2.67429 20.5029 0.891429 0 0 0 1 2
249 1 3.56452 19.5893 1.79529 6.65265 -2.8186 -0.999599 1 1
250 1 0.00650282 19.586 1.80249 6.69132 -10.1624 3.4947 1 1
251 1 5.3488 -0.0272643 1.81556 5.09909 -14.1807 -0.154931 1 1
252 1 3.56572 17.8286 0 0 0 0 1 3
253 1 5.34857 19.6114 0 0 0 0 1 3
254 1 4.45714 18.72 0.891429 0 0 0 1 2
255 1 4.47762 20.4716 2.70572 -6.77147 -3.50662 -0.449723 1 1
256 1 6.25102 18.7207 2.66884 5.40996 -5.34406 -8.18132 1 1
257 1 6.24 20.5029 0.891429 0 0 0 1 2
258 1 7.11449 19.6147 1.79018 5.8821 2.07157 -1.11744 1 1
259 1 7.13143 17.8286 0 0 0 0 1 3
260 1 8.02286 18.72 0.891429 0 0 0 1 2
261 1 8.01252 20.4726 2.69691 1.38883 5.02762 -3.37444 1 1
262 1 8.91429 19.6114 0 0 0 0 1 3
263 1 9.78908 18.7458 2.68615 5.5588 -0.0935181 -0.625328 1 1
264 1 9.80572 20.5029 0.891429 0 0 0 1 2
265 1 10.7034 19.6459 1.8123 4.25797 -2.37183 -5.09018 1 1
266 1 12.4819 21.4054 1.8133 -1.20993 6.76225 -3.06489 1 1
267 1 10.6971 17.8286 0 0 0 0 1 3
268 1 12.48 19.6114 0 0 0 0 1 3
269 1 11.5886 18.72 0.891429 0 0 0 1 2
270 1 11.5675 20.5285 2.65767 -10.3262 3.34562 9.60878 1 1
271 1 13.3785 18.7668 2.7086 -11.5314 8.40008 7.16682 1 1
272 1 13.3714 20.5029 0.891429 0 0 0 1 2
273 1 14.3287 19.6126 1.80226 -5.22709 0.203189 9.11666 1 1
274 1 16.0524 17.8271 1.80883 -5.74432 -2.32387 1.69599 1 1
275 1 14.2629 17.8286 0 0 0 0 1 3
276 1 16.0457 19.6114 0 0 0 0 1 3
277 1 15.1543 18.72 0.891429 0 0 0 1 2
278 1 15.1426 20.5587 2.70121 3.59575 -9.13474 0.698859 1 1
279 1 16.9246 18.7059 2.64693 -10.3349 -2.0206 0.913347 1 1
280 1 16.9371 20.5029 0.891429 0 0 0 1 2
281 1 19.6205 -0.0261481 1.78537 -3.0548 -3.5224 -1.00596 1 1
282 1 17.8332 19.6288 1.76484 -0.766425 6.95032 -1.07135 1 1
283 1 17.8286 17.8286 0 0 0 0 1 3
284 1 19.6114 19.6114 0 0 0 0 1 3
285 1 18.72 18.72 0.891429 0 0 0 1 2
286 1 18.7001 20.502 2.65965 4.42301 3.75112 -0.548556 1 1
287 1 20.4739 18.7086 2.70776 -7.22099 -4.25677 -7.19806 1 1
288 1 20.5029 20.5029 0.891429 0 0 0 1 2
289 1 1.80123 1.76895 3.56887 -0.176447 0.696566 -2.49319 1 1
290 1 0.87297 0.917554 4.47644 -0.261669 4.35723 3.66491 1 1
291 1 2.69756 2.66129 4.50044 -2.18239 2.21258 -6.0575 1 1
292 1 1.82062 0.0294742 5.38919 -3.8931 -14.665 3.95606 1 1
293 1 1.78291 3.56996 5.35259 4.71174 -2.05848 0.532548 1 1
294 1 21.4018 1.793 5.35375 -1.63982 1.89171 -6.77328 1 1
295 1 21.4213 21.4122 3.54901 5.61452 0.333671 0.393221 1 1
296 1 3.54756 1.79831 5.43396 2.45635 -8.57331 -4.15611 1 1
297 1 5.34622 1.76233 3.59838 -0.063302 -8.66424 -1.36356 1 1
298 1 4.45552 0.879845 4.49088 2.24453 0.040354 6.85561 1 1
299 1 6.21303 0.917941 6.30353 12.2478 3.39011 -10.5396 1 1
300 1 6.23929 2.69468 4.50476 -1.30722 3.62402 -3.12014 1 1
301 1 3.59513 -0.0193861 3.57112 -3.45213 1.90554 -8.13815 1 1
302 1 7.12221 21.3664 3.61806 -0.379845 8.39856 -7.96066 1 1
303 1 5.34504 21.3672 5.41334 6.08174 8.16094 -2.96299 1 1
304 1 7.08251 3.5571 3.5843 0.00644523 -4.46185 -5.54306 1 1
305 1 7.0821 1.75662 5.37462 2.26382 4.3324 0.058987 1 1
306 1 8.88313 1.77552 3.6378 -3.17323 2.58591 -6.12416 1 1
307 1 8.01285 0.863921 4.50855 1.17777 -4.11721 -3.07547 1 1
308 1 8.03812 2.65099 6.28696 6.27404 2.88589 -0.518971 1 1
309 1 9.76557 0.929261 6.33486 1.01019 -4.89548 -0.680954 1 1
310 1 9.77885 2.65908 4.50131 0.328931 2.2531 -6.53452 1 1
311 1 10.6963 1.80828 5.42163 -1.74291 2.20316 3.99384 1 1
312 1 12.4746 1.78949 3.59319 1.06972 -0.340548 -0.460623 1 1
313 1 11.5953 0.923416 4.50251 -4.50073 -0.863832 -0.154648 1 1
314 1 11.5847 2.68961 6.28721 -5.09534 -0.280312 1.88597 1 1
315 1 13.3656 2.67452 4.51723 -4.68926 2.83083 -3.29221 1 1
316 1 13.4009 0.8849 6.24769 -1.96528 2.64631 8.08882 1 1
317 1 12.4721 3.58615 5.36915 -5.27636 -7.4411 2.8419 1 1
318 1 14.2673 1.81597 5.39834 5.60679 -2.8193 -2.113 1 1
319 1 12.424 21.4161 5.36182 -2.70306 -0.0711256 -4.28827 1 1
320 1 14.2639 3.57578 3.62155 0.546644 -7.09171 3.68657 1 1
321 1 16.0266 1.8081 3.56364 -5.28794 -7.74107 -1.26306 1 1
322 1 15.117 0.887748 4.4677 -3.08324 -1.71769 -0.637425 1 1
323 1 15.1799 2.68127 6.23279 0.832819 -5.86697 -0.0161789 1 1
324 1 16.9983 2.64028 4.46412 -1.72308 -1.79765 -1.55121 1 1
325 1 17.8445 1.75191 5.35407 6.801 -10.9522 -0.871009 1 1
326 1 15.9691 0.00667991 5.38217 -1.74534 3.45827 -7.57508 1 1
327 1 19.5874 1.78159 3.55554 -2.29848 -0.873418 0.533963 1 1
328 1 18.6967 0.852331 4.42903 -3.11929 -2.20557 1.37473 1 1
329 1 20.4557 2.6811 4.47088 -0.195827 -3.4162 -1.68407 1 1
330 1 17.8015 -0.0366479 3.55294 -6.48141 5.31335 0.127867 1 1
331 1 19.6267 -0.0122603 5.3685 13.1645 3.38033 -4.13794 1 1
332 1 21.4178 3.62815 3.59188 8.49937 -5.34493 2.68854 1 1
333 1 1.79413 5.34983 3.58741 2.87648 -0.712889 4.12283 1 1
334 1 0.871046 4.47775 4.4575 11.1861 -0.537403 1.78383 1 1
335 1 2.66761 4.50358 6.28061 -0.26869 -4.25997 7.63369 1 1
336 1 2.67148 6.27229 4.49504 7.39196 1.34647 5.33685 1 1
337 1 3.57024 3.54285 3.61606 -3.96216 0.750685 -0.627714 1 1
338 1 21.377 5.40771 5.40269 -4.40331 6.00961 -0.0245582 1 1
339 1 3.54945 5.36215 5.34033 9.83829 2.88419 -7.59042 1 1
340 1 5.32064 3.58726 5.3857 -1.43141 3.24043 0.69655 1 1
341 1 5.35466 5.36702 3.53585 6.29617 2.39446 1.71377 1 1
342 1 4.43102 4.47387 4.46538 -6.88373 4.21075 1.88606 1 1
343 1 4.43966 6.24827 6.29031 -7.40949 2.7989 -1.65218 1 1
344 1 6.23505 6.23304 4.44801 3.03979 0.674824 0.332344 1 1
345 1 7.10883 5.33493 5.39086 2.45668 2.57641 -1.46545 1 1
346 1 5.30312 7.15437 5.36069 0.966346 -0.0807345 -1.1365 1 1
347 1 6.19479 4.44653 6.26434 -1.26167 2.62193 1.89981 1 1
348 1 8.90336 3.58141 5.42141 -9.37073 -2.1004 -2.20039 1 1
349 1 10.662 3.53269 3.60502 -2.54147 1.23977 -3.03293 1 1
350 1 8.9631 5.30747 3.5586 2.8693 -3.28144 -0.825827 1 1
351 1 8.03963 4.45828 4.50751 -0.361596 -2.09056 -1.8144 1 1
352 1 8.05635 6.16613 6.30359 0.303942 -2.08154 -5.78508 1 1
353 1 9.82137 4.39153 6.34018 -6.07644 -2.66355 4.16288 1 1
354 1 9.85064 6.22256 4.48784 -0.971403 2.87793 2.72689 1 1
355 1 10.6701 5.34311 5.42018 -9.70514 1.16536 -2.85115 1 1
356 1 12.4806 5.35562 3.56698 -7.34728 4.29298 -3.42393 1 1
357 1 11.5872 4.46632 4.46996 -0.939863 4.00854 -2.16193 1 1
358 1 13.4222 6.23363 4.43501 9.29872 -2.46951 6.9615 1 1
359 1 14.2399 5.33349 5.35863 -3.4089 -4.08505 -8.03945 1 1
360 1 16.0926 3.6005 5.36388 -1.40392 4.48123 -7.62729 1 1
361 1 17.8135 3.53708 3.57005 -5.23647 -2.21414 -1.69838 1 1
362 1 15.9857 5.35799 3.57411 -0.751138 5.15143 0.885633 1 1
363 1 15.1873 4.44435 4.49319 -0.740252 -1.84238 1.55341 1 1
364 1 16.8886 6.22273 4.43017 -3.2977 -6.7217 -2.63484 1 1
365 1 16.9768 4.52475 6.21697 0.217723 4.13229 -5.68343 1 1
366 1 16.0152 7.15371 5.34205 -5.59004 6.66372 6.13374 1 1
367 1 15.129 6.3033 6.23487 -5.957 -1.50197 2.87057 1 1
368 1 19.6191 3.58103 5.40781 6.3994 -1.1143 -7.08306 1 1
369 1 17.8222 5.40513 5.29282 -3.07238 -1.71748 2.76358 1 1
370 1 19.5929 5.37029 3.52464 2.54052 -0.167962 4.99561 1 1
371 1 18.7437 4.49433 4.40833 3.52406 1.13142 -2.09459 1 1
372 1 20.462 4.47254 6.29659 2.94167 4.1257 -1.06075 1 1
373 1 20.4873 6.2886 4.46973 -10.4294 1.07409 1.83485 1 1
374 1 19.6074 7.18954 5.36021 -9.91188 -2.21419 2.65127 1 1
375 1 -0.0139575 7.19126 3.5924 -8.94345 1.64834 3.53479 1 1
376 1 1.77482 7.18018 5.35936 7.33707 -3.19402 0.252516 1 1
377 1 1.80583 8.89984 3.55979 11.4193 3.55289 6.20747 1 1
378 1 0.890814 8.07976 4.45692 4.82645 -7.71532 2.87743 1 1
379 1 2.67342 8.01147 6.26232 -5.34239 -2.09955 7.11844 1 1
380 1 0.916609 9.79897 6.25465 0.968353 -8.10935 3.72634 1 1
381 1 2.6718 9.77264 4.45366 5.35021 -5.06771 -10.5677 1 1
382 1 0.024095 8.96692 5.32704 -0.918044 -2.23434 -1.60846 1 1
383 1 1.80985 10.7171 5.33394 8.26075 4.67474 -2.02399 1 1
384 1 3.56321 7.15976 3.55486 -8.57083 -1.72129 -2.03919 1 1
385 1 7.08847 7.05851 3.53841 -6.21135 -4.34542 -4.43343 1 1
386 1 3.56789 10.7007 3.60387 -1.02316 -1.84902 2.30201 1 1
387 1 3.55482 8.88484 5.32668 -4.41944 1.44827 -5.14127 1 1
388 1 5.33515 8.91931 3.55866 2.97589 -1.49327 -0.0647094 1 1
389 1 4.45616 8.01429 4.50101 1.15796 0.751948 10.1407 1 1
390 1 4.41896 9.78376 6.2485 2.0068 -4.44831 -1.30902 1 1
391 1 6.23888 9.77671 4.45937 3.66569 2.165 -5.86151 1 1
392 1 8.94489 7.08278 5.38426 -1.65095 2.94641 1.9133 1 1
393 1 7.14631 8.87028 5.36768 -10.2322 -3.61909 0.153056 1 1
394 1 8.94694 8.85214 3.58024 13.2351 0.730102 -2.50803 1 1
395 1 8.01637 7.95493 4.46619 4.15172 1.02688 4.53096 1 1
396 1 9.80365 9.77043 4.40733 -0.558199 -3.6515 2.03425 1 1
397 1 10.7338 8.8649 5.32466 8.99437 1.6521 -7.73638 1 1
398 1 10.7269 10.7312 3.52479 -5.88403 -0.432119 5.97073 1 1
399 1 9.86883 8.03105 6.26919 2.99259 3.15451 -1.94736 1 1
400 1 12.4864 7.08019 5.32124 2.24575 6.94742 0.874116 1 1
401 1 10.6995 7.08462 3.57334 0.426224 -7.43632 -3.55486 1 1
402 1 12.4952 8.89724 3.57046 -2.34598 -1.79544 5.98387 1 1
403 1 11.6282 7.95165 4.47028 7.11759 -2.22138 -2.16293 1 1
404 1 13.3826 9.73845 4.46197 -2.26943 2.18258 2.39619 1 1
405 1 14.3019 7.13687 3.5696 9.29169 -2.03169 7.69014 1 1
406 1 14.2714 8.89886 5.34486 0.0649452 0.330181 -1.58553 1 1
407 1 17.8185 7.12905 3.54335 -1.28269 0.896142 -4.80621 1 1
408 1 16.0892 8.87325 3.58967 -10.3955 -11.6954 -1.12331 1 1
409 1 15.1522 8.04024 4.48226 7.73149 3.03273 7.14621 1 1
410 1 16.9381 9.81108 4.4521 -1.80809 -1.36879 -1.4946 1 1
411 1 16.0855 10.6932 5.30989 -1.52689 -3.72225 2.02945 1 1
412 1 16.9404 8.03672 6.26259 2.45406 -4.45152 -2.56063 1 1
413 1 17.8225 8.95985 5.33222 -4.6463 -1.99425 -4.51258 1 1
414 1 19.6268 8.93824 3.50991 -7.81708 1.978 1.15601 1 1
415 1 18.7144 8.06537 4.43193 -9.46723 -5.04173 4.69371 1 1
416 1 18.7355 9.82686 6.2391 -1.60436 0.0499617 -1.48361 1 1
417 1 20.5191 9.78454 4.44354 -10.3087 -3.19903 2.87506 1 1
418 1 20.4961 8.04632 6.25462 -6.18837 1.50094 -2.32533 1 1
419 1 19.6589 10.6887 5.34025 0.37062 3.41579 -2.22657 1 1
420 1 -0.00182946 10.6876 3.56598 -0.569024 0.477941 5.38109 1 1
421 1 1.77409 12.4827 3.57734 -2.99131 6.92308 6.02678 1 1
422 1 0.865665 11.582 4.49477 -3.52406 9.61289 3.82769 1 1
423 1 2.6444 11.6081 6.25672 1.37967 -0.408164 -0.08316 1 1
424 1 0.841588 13.3886 6.26069 7.41249 -3.781 -7.26722 1 1
425 1 2.70231 13.372 4.4903 -1.52195 -6.54316 4.96346 1 1
426 1 0.00464202 12.4734 5.3654 -4.83743 7.25979 -0.0888663 1 1
427 1 5.35271 10.7101 5.33691 3.3857 -1.99475 -3.88155 1 1
428 1 3.56321 14.2745 3.5461 -2.35639 8.68629 -5.06839 1 1
429 1 3.61872 12.5012 5.34421 -2.69558 -6.6153 9.3072 1 1
430 1 5.35169 12.5072 3.55068 -0.789539 -1.94539 3.58711 1 1
431 1 4.4829 11.6121 4.44358 9.36802 4.22458 -1.5853 1 1
432 1 6.22318 13.3749 4.47227 -4.47816 -0.092414 5.61138 1 1
433 1 7.14736 14.2887 3.59429 -7.1935 -3.54796 -5.2369 1 1
434 1 6.19897 11.5779 6.26131 5.93594 3.65699 -3.66006 1 1
435 1 7.12257 10.7026 3.51338 1.19578 -0.348567 7.31957 1 1
436 1 7.12714 12.4469 5.34687 -2.54916 5.06693 -0.781164 1 1
437 1 8.87967 10.6359 5.32198 -2.52646 2.79444 3.31324 1 1
438 1 8.91231 12.548 3.57628 4.26745 -2.29969 4.10687 1 1
439 1 7.98121 11.5727 4.42959 2.42598 -2.36754 0.167025 1 1
440 1 9.78529 11.5737 6.20965 -6.17712 -3.9339 -0.974655 1 1
441 1 8.02379 13.3665 6.27498 -0.668287 -1.72944 8.87453 1 1
442 1 9.76876 13.3642 4.46532 2.71735 1.28763 -7.15381 1 1
443 1 10.7205 14.3026 3.61061 -2.37093 -1.2884 -1.09999 1 1
444 1 12.5051 10.6988 5.32849 -1.06155 -4.44586 -0.628002 1 1
445 1 10.6664 12.4567 5.30517 1.35795 1.2167 6.30062 1 1
446 1 12.5438 12.4574 3.58501 -6.66855 0.0908801 -6.82368 1 1
447 1 11.5857 11.5943 4.41684 -6.74792 2.2227 -0.380873 1 1
448 1 13.4056 11.6213 6.22424 -0.774724 -3.32629 0.22674 1 1
449 1 11.5345 13.3343 6.23222 -4.85941 -2.87768 -4.39216 1 1
450 1 13.343 13.4145 4.47726 -6.08923 -0.310171 -2.77174 1 1
451 1 14.2453 10.6561 3.54183 -4.04674 -6.28519 -2.1379 1 1
452 1 14.3054 12.5064 5.3438 7.66326 2.64943 -1.90831 1 1
453 1 16.0399 12.4759 3.53457 -0.469628 4.15202 8.48003 1 1
454 1 15.1597 11.5521 4.40141 0.690697 -4.96421 9.20618 1 1
455 1 16.9664 11.5742 6.22946 -0.60578 7.30661 -3.70616 1 1
456 1 16.922 13.3215 4.48831 -2.96416 -0.255998 3.29462 1 1
457 1 17.8088 12.4256 5.36326 -5.23616 1.17288 -0.914941 1 1
458 1 15.2126 13.3436 6.2373 6.94092 1.58025 2.90989 1 1
459 1 17.8455 10.6664 3.55045 4.54579 -3.32045 6.22815 1 1
460 1 19.6341 12.4349 3.56216 -1.46484 -1.3562 4.87186 1 1
461 1 18.7252 11.5723 4.46626 -6.13352 0.145224 9.41647 1 1
462 1 18.7314 13.3296 6.24171 0.716424 -0.231577 1.99586 1 1
463 1 20.48 13.3794 4.45943 -3.75499 5.93953 6.76168 1 1
464 1 20.5169 11.575 6.27857 -4.89063 -3.84716 3.16984 1 1
465 1 1.77155 14.2715 5.40618 3.91156 0.273503 4.76509 1 1
466 1 1.76529 16.0225 3.58839 10.1324 -1.20432 -2.64778 1 1
467 1 0.889877 15.1367 4.44709 -0.280966 6.47876 6.16596 1 1
468 1 2.65227 15.1945 6.27069 2.47583 -3.364 6.80638 1 1
469 1 2.64187 16.8954 4.48929 1.32444 -0.876683 -6.16286 1 1
470 1 -0.0420732 16.0483 5.36499 -0.294067 -5.78931 0.564943 1 1
471 1 21.4221 14.217 3.56611 4.47018 -1.57271 -1.72079 1 1
472 1 1.81374 17.8123 5.36512 -1.88105 7.11304 -5.84009 1 1
473 1 5.33079 14.2725 5.34668 9.13205 -0.523152 1.20723 1 1
474 1 3.56718 16.0129 5.37964 -0.743293 3.34957 1.01728 1 1
475 1 5.35074 16.0832 3.57487 -2.77472 1.23337 1.36961 1 1
476 1 4.45993 15.1384 4.40969 3.19436 -1.39269 -7.6885 1 1
477 1 4.45593 16.88 6.29411 -0.249857 0.0337794 -0.772701 1 1
478 1 6.22927 15.1531 6.27755 -7.61841 3.42859 1.28494 1 1
479 1 6.24477 16.9814 4.49144 -6.29402 2.92568 -3.92617 1 1
480 1 7.16437 16.0363 5.35706 3.69248 -8.0125 1.771 1 1
481 1 8.92205 14.2652 5.40595 3.46996 -0.128286 -9.09194 1 1
482 1 8.85895 16.0382 3.57401 -0.470007 3.2902 0.66982 1 1
483 1 8.0372 15.1663 4.44709 0.893837 3.78158 -2.27236 1 1
484 1 8.00835 16.9143 6.25775 2.08192 -4.18518 -0.927067 1 1
485 1 9.79165 15.1881 6.29782 5.88476 1.7863 4.15668 1 1
486 1 9.8108 16.9203 4.48566 -5.62494 -6.84736 2.29228 1 1
487 1 10.6522 16.0861 5.40157 5.98922 0.665661 -0.72318 1 1
488 1 8.90746 17.7831 5.38474 3.3923 2.74134 7.22407 1 1
489 1 10.7072 17.8529 3.59539 5.39334 3.48308 0.421871 1 1
490 1 12.4449 14.2976 5.36065 1.17005 3.4465 -1.11713 1 1
491 1 12.481 16.076 3.60633 -4.64239 4.2545 -2.62047 1 1
492 1 11.5503 15.2202 4.50192 -0.255333 -11.1629 6.86591 1 1
493 1 11.5814 16.9353 6.30814 -1.66767 8.93104 3.83067 1 1
494 1 13.348 16.9489 4.45602 7.09051 3.72753 -3.8529 1 1
495 1 13.4 15.1464 6.25092 -2.1578 -1.47992 2.5689 1 1
496 1 12.447 17.8557 5.3417 -3.13998 3.61363 -1.32283 1 1
497 1 14.2601 14.2642 3.57171 -5.93744 3.97718 -2.51228 1 1
498 1 16.0456 14.2624 5.3325 -5.68716 7.51484 2.13776 1 1
499 1 17.8277 14.2141 3.57079 -0.283075 10.4508 -0.441559 1 1
500 1 14.3204 16.0753 5.3684 -1.89656 -2.32987 -7.08765 1 1
501 1 14.2478 17.8312 3.61736 3.59122 4.46808 -9.75521 1 1
502 1 16.0297 16.0546 3.56533 -6.02521 4.92884 1.36496 1 1
503 1 15.1581 15.1761 4.46094 3.61157 2.20241 8.23037 1 1
504 1 16.9203 16.9682 4.43917 -2.98314 -2.56085 -0.280874 1 1
505 1 16.9094 15.1904 6.27767 4.81153 -5.24963 0.24203 1 1
506 1 17.8705 16.0917 5.40979 -1.38812 1.26445 -7.77323 1 1
507 1 19.6551 14.2528 5.36457 3.19568 -0.630295 -7.17903 1 1
508 1 19.6268 16.0299 3.56116 -6.40995 3.78897 -3.26325 1 1
509 1 18.7208 15.157 4.49835 5.44443 -3.20108 5.23284 1 1
510 1 20.5021 16.9287 4.42192 -2.13864 3.04885 1.88161 1 1
511 1 19.6228 17.8702 5.31639 1.82193 7.2155 -4.76276 1 1
512 1 20.4565 15.1571 6.30545 3.05875 2.85472 6.44953 1 1
513 1 1.80345 19.6193 3.62606 4.1031 -4.09872 -9.9341 1 1
514 1 0.926288 18.6833 4.45332 3.60209 0.762581 -2.62492 1 1
515 1 0.866379 20.5251 6.22143 3.75316 5.49691 -4.67183 1 1
516 1 2.7051 20.5041 4.48113 3.69713 -1.25428 -8.6066 1 1
517 1 -0.00251808 17.7817 3.54011 4.69177 -2.24983 -13.3492 1 1
518 1 21.367 19.6319 5.37183 5.27281 -3.93855 -3.35933 1 1
519 1 2.64398 18.7047 6.25903 1.63468 6.41314 3.93287 1 1
520 1 5.38019 17.7732 5.3968 -1.01138 -2.97175 -2.30451 1 1
521 1 3.59811 17.8008 3.55467 2.02718 0.757439 -1.84618 1 1
522 1 3.56308 19.5558 5.4154 -0.0164695 4.9053 -5.7808 1 1
523 1 5.38576 19.6045 3.56474 11.2249 2.21668 -5.46084 1 1
524 1 4.4923 18.7103 4.49009 9.29126 -2.88389 -0.574277 1 1
525 1 4.42976 20.492 6.32118 7.41129 2.32405 -0.422759 1 1
526 1 6.25025 18.7499 6.29194 0.449555 -4.40301 7.71664 1 1
527 1 6.19392 20.486 4.48617 7.92744 5.60031 -5.02336 1 1
528 1 7.13999 17.8526 3.58616 0.972525 1.40396 -1.94817 1 1
529 1 7.11262 19.566 5.38738 0.178777 -0.430087 -7.29099 1 1
530 1 8.87474 -0.00715329 5.39251 -1.59556 -4.13565 -0.451164 1 1
531 1 8.92243 19.5991 3.60381 -2.15844 5.13895 6.90969 1 1
532 1 8.02374 18.6782 4.47963 -6.50412 1.83508 -4.32718 1 1
533 1 8.01314 20.4955 6.27663 -2.58025 -0.298291 -9.25984 1 1
534 1 9.77508 18.6979 6.28479 8.03738 14.3724 1.13136 1 1
535 1 9.7699 20.5081 4.50015 5.62201 -3.52923 -7.77987 1 1
536 1 10.6603 19.5976 5.37221 -2.80908 0.913881 -0.84144 1 1
537 1 10.638 21.4064 3.59869 3.8489 0.852848 -2.84721 1 1
538 1 12.4569 19.638 3.55369 -1.94134 -0.278578 -0.882105 1 1
539 1 11.5319 18.731 4.45557 -3.26373 12.8422 -2.50101 1 1
540 1 13.3352 18.7405 6.20908 2.96015 -3.35272 -0.362546 1 1
541 1 13.3229 20.531 4.46591 5.62109 3.33811 0.544683 1 1
542 1 16.0627 17.8656 5.38815 0.212349 0.532064 -7.69975 1 1
543 1 14.1816 0.00830444 3.55877 -13.0533 -2.02958 -1.05735 1 1
544 1 14.2284 19.6406 5.35788 -0.788094 -0.618276 3.22032 1 1
545 1 16.0321 19.6703 3.54729 4.72195 -1.98551 0.00769865 1 1
546 1 15.1512 18.7756 4.4935 -2.31778 3.17395 -2.75112 1 1
547 1 16.9515 18.7577 6.28894 4.89134 -1.21835 4.21341 1 1
548 1 16.9369 20.5045 4.4881 0.867377 -2.60487 -2.97303 1 1
549 1 17.7971 19.631 5.41904 0.505121 -11.1043 -0.993131 1 1
550 1 17.791 17.8225 3.54436 1.84246 1.68507 1.71607 1 1
551 1 19.5911 19.6299 3.57609 -2.66265 -4.22844 -2.0552 1 1
552 1 18.6712 18.7623 4.46346 -5.34433 2.09881 9.13324 1 1
553 1 18.7426 20.5439 6.26781 -7.00389 -0.142557 -3.91744 1 1
554 1 20.5123 18.7056 6.2695 4.54378 -3.30569 -1.62076 1 1
555 1 20.5333 20.5196 4.41854 -1.39813 3.71679 4.40114 1 1