ITEM: TIMESTEP
300
ITEM: NUMBER OF ATOMS
2953
ITEM: BOX BOUNDS pp pp mm
0.0000000000000000e+00 2.1394294200000001e+01
0.0000000000000000e+00 2.1394294200000001e+01
-4.4571446250000002e-01 5.3485735500000004e+01
ITEM: ATOMS id type x y z vx vy vz v_is_diamond c_structure_type
1 1 0 0 0 0 0 0 1 3
2 1 0.0115635 1.8063 1.76598 -10.0275 4.54734 -2.67725 1 1
3 1 1.79197 0.0201511 1.81086 -3.24193 -1.86684 1.54815 1 1
4 1 1.78286 1.78286 0 0 0 0 1 3
5 1 0.891429 0.891429 0.891429 0 0 0 1 2
6 1 0.909954 2.70859 2.6472 2.10973 -6.50518 9.00367 1 1
7 1 2.65976 0.954894 2.65367 9.35085 -6.68459 -0.314523 1 1
8 1 2.67429 2.67429 0.891429 0 0 0 1 2
9 1 3.56572 0 0 0 0 0 1 3
10 1 3.57093 1.82069 1.77511 -0.974973 0.878657 3.29634 1 1
11 1 5.3048 0.0380531 1.84166 7.10177 5.50596 -6.35321 1 1
12 1 5.34857 1.78286 0 0 0 0 1 3
13 1 4.45714 0.891429 0.891429 0 0 0 1 2
14 1 4.4493 2.65161 2.72876 -4.58436 3.1284 -13.2735 1 1
15 1 6.19426 0.932506 2.67632 -2.06038 1.35465 4.14412 1 1
16 1 6.24 2.67429 0.891429 0 0 0 1 2
17 1 7.13143 0 0 0 0 0 1 3
18 1 7.07381 1.79238 1.78146 -3.23987 4.12733 5.60356 1 1
19 1 8.90227 21.3793 1.74814 -1.13831 -8.21631 4.59061 1 1
20 1 8.91429 1.78286 0 0 0 0 1 3
21 1 8.02286 0.891429 0.891429 0 0 0 1 2
22 1 7.9741 2.66465 2.66539 4.74448 1.42033 3.63908 1 1
23 1 9.77763 0.877638 2.64495 4.85266 0.997103 0.196734 1 1
24 1 9.80572 2.67429 0.891429 0 0 0 1 2
25 1 10.6971 0 0 0 0 0 1 3
26 1 10.6918 1.77459 1.77042 -2.11637 4.24879 2.38022 1 1
27 1 12.4718 21.3892 1.81257 6.21527 -0.409191 -4.6406 1 1
28 1 12.48 1.78286 0 0 0 0 1 3
29 1 11.5886 0.891429 0.891429 0 0 0 1 2
30 1 11.5672 2.68177 2.6643 7.46738 6.77463 2.5228 1 1
31 1 13.4069 0.867658 2.73609 3.26806 4.67702 -0.282277 1 1
32 1 13.3714 2.67429 0.891429 0 0 0 1 2
33 1 14.2629 0 0 0 0 0 1 3
34 1 14.2285 1.75292 1.8087 2.88473 -5.37565 -5.81609 1 1
35 1 16.045 -0.00144861 1.82094 1.1085 -4.73708 -0.877972 1 1
36 1 16.0457 1.78286 0 0 0 0 1 3
37 1 15.1543 0.891429 0.891429 0 0 0 1 2
38 1 15.1498 2.66138 2.69689 -4.86056 -1.02155 -1.27187 1 1
39 1 16.9334 0.889664 2.67932 1.85684 2.61189 5.49728 1 1
40 1 16.9371 2.67429 0.891429 0 0 0 1 2
41 1 17.8286 0 0 0 0 0 1 3
42 1 17.8057 1.76658 1.75642 2.10984 2.75311 3.93765 1 1
43 1 19.6344 0.0355679 1.79579 8.24105 -4.32381 13.1888 1 1
44 1 19.6114 1.78286 0 0 0 0 1 3
45 1 18.72 0.891429 0.891429 0 0 0 1 2
46 1 18.7325 2.67685 2.67402 -2.44144 0.516484 1.67566 1 1
47 1 20.5034 0.953161 2.64696 -6.00102 6.60958 1.13028 1 1
48 1 20.5029 2.67429 0.891429 0 0 0 1 2
49 1 0 3.56572 0 0 0 0 1 3
50 1 0.0233105 5.36449 1.77738 1.43235 -2.49057 1.34396 1 1
51 1 1.80505 3.59193 1.78146 -8.04843 -2.18718 -0.698322 1 1
52 1 1.78286 5.34857 0 0 0 0 1 3
53 1 0.891429 4.45714 0.891429 0 0 0 1 2
54 1 0.919965 6.24043 2.71006 -0.0941719 -1.986 -0.186254 1 1
55 1 2.68439 4.47365 2.71662 -8.8952 2.69252 5.34459 1 1
56 1 2.67429 6.24 0.891429 0 0 0 1 2
57 1 3.56572 3.56572 0 0 0 0 1 3
58 1 3.57927 5.32906 1.78472 -1.05152 -6.17606 -0.245799 1 1
59 1 5.32754 3.57026 1.80224 1.93673 -1.15177 0.980907 1 1
60 1 5.34857 5.34857 0 0 0 0 1 3
61 1 4.45714 4.45714 0.891429 0 0 0 1 2
62 1 4.48915 6.23709 2.67181 2.67071 -3.60331 -3.0313 1 1
63 1 6.24805 4.46986 2.6962 1.29012 -1.4764 -0.612219 1 1
64 1 6.24 6.24 0.891429 0 0 0 1 2
65 1 7.13143 3.56572 0 0 0 0 1 3
66 1 7.11907 5.34821 1.7763 1.73333 -6.58282 5.30258 1 1
67 1 8.91922 3.57647 1.83667 -4.56846 -5.59115 2.07206 1 1
68 1 8.91429 5.34857 0 0 0 0 1 3
69 1 8.02286 4.45714 0.891429 0 0 0 1 2
70 1 8.02247 6.23908 2.68794 -0.224881 4.69064 0.890579 1 1
71 1 9.81376 4.4572 2.69739 -0.442397 0.767185 -0.818495 1 1
72 1 9.80572 6.24 0.891429 0 0 0 1 2
73 1 10.6971 3.56572 0 0 0 0 1 3
74 1 10.7209 5.32925 1.8235 4.92917 0.422061 -2.79525 1 1
75 1 12.4811 3.5618 1.78148 6.42963 3.92103 0.274101 1 1
76 1 12.48 5.34857 0 0 0 0 1 3
77 1 11.5886 4.45714 0.891429 0 0 0 1 2
78 1 11.5489 6.29259 2.72741 -2.91568 5.76319 6.50282 1 1
79 1 13.3745 4.43958 2.68667 0.422373 -2.43604 8.43151 1 1
80 1 13.3714 6.24 0.891429 0 0 0 1 2
81 1 14.2629 3.56572 0 0 0 0 1 3
82 1 14.2764 5.36421 1.77134 -1.30928 2.65116 3.83691 1 1
83 1 16.0218 3.53358 1.80355 -3.13706 3.68266 3.49974 1 1
84 1 16.0457 5.34857 0 0 0 0 1 3
85 1 15.1543 4.45714 0.891429 0 0 0 1 2
86 1 15.1908 6.20928 2.66963 -1.99546 4.74011 -5.72386 1 1
87 1 16.961 4.40506 2.66922 4.38737 -3.74465 5.59295 1 1
88 1 16.9371 6.24 0.891429 0 0 0 1 2
89 1 17.8286 3.56572 0 0 0 0 1 3
90 1 17.8001 5.3467 1.77846 -4.20561 -5.06394 -1.50213 1 1
91 1 19.6042 3.55041 1.75426 -1.91875 1.17629 -4.82307 1 1
92 1 19.6114 5.34857 0 0 0 0 1 3
93 1 18.72 4.45714 0.891429 0 0 0 1 2
94 1 18.7457 6.2194 2.6537 -11.0016 2.09763 9.64195 1 1
95 1 20.5255 4.42463 2.72147 -3.75962 3.74551 1.11046 1 1
96 1 20.5029 6.24 0.891429 0 0 0 1 2
97 1 0 7.13143 0 0 0 0 1 3
98 1 0.0429895 8.89803 1.77363 -1.63123 5.04706 5.91435 1 1
99 1 1.79003 7.11066 1.78715 -3.06164 2.12673 -0.717077 1 1
100 1 1.78286 8.91429 0 0 0 0 1 3
101 1 0.891429 8.02286 0.891429 0 0 0 1 2
102 1 0.891101 9.79617 2.69038 -0.729272 0.847935 8.90669 1 1
103 1 2.70609 8.00581 2.64617 1.4057 12.282 -9.51309 1 1
104 1 2.67429 9.80572 0.891429 0 0 0 1 2
105 1 3.56572 7.13143 0 0 0 0 1 3
106 1 3.55292 8.86422 1.76155 -1.14732 4.52509 -6.58607 1 1
107 1 5.38165 7.11439 1.81481 4.59599 1.92882 -4.70787 1 1
108 1 5.34857 8.91429 0 0 0 0 1 3
109 1 4.45714 8.02286 0.891429 0 0 0 1 2
110 1 4.45709 9.77601 2.66554 -3.20068 -2.34637 -12.189 1 1
111 1 6.27288 8.03023 2.708 -1.2965 -2.50579 5.74168 1 1
112 1 6.24 9.80572 0.891429 0 0 0 1 2
113 1 7.13143 7.13143 0 0 0 0 1 3
114 1 7.14635 8.86872 1.78555 -2.75357 -2.74777 -8.53632 1 1
115 1 8.89517 7.12343 1.79797 -4.4471 2.29057 4.48143 1 1
116 1 8.91429 8.91429 0 0 0 0 1 3
117 1 8.02286 8.02286 0.891429 0 0 0 1 2
118 1 8.06518 9.81219 2.68059 4.16269 -2.41534 -7.04643 1 1
119 1 9.7475 8.00525 2.67171 1.46642 1.60993 2.28272 1 1
120 1 9.80572 9.80572 0.891429 0 0 0 1 2
121 1 10.6971 7.13143 0 0 0 0 1 3
122 1 10.6563 8.90458 1.803 5.59127 -2.36558 3.41626 1 1
123 1 12.4798 7.10731 1.81766 -2.12308 -3.00085 -7.70135 1 1
124 1 12.48 8.91429 0 0 0 0 1 3
125 1 11.5886 8.02286 0.891429 0 0 0 1 2
126 1 11.5786 9.80152 2.73178 6.10446 -9.0207 6.81883 1 1
127 1 13.386 8.00635 2.70322 -5.72271 4.91474 0.242174 1 1
128 1 13.3714 9.80572 0.891429 0 0 0 1 2
129 1 14.2629 7.13143 0 0 0 0 1 3
130 1 14.2761 8.89812 1.77923 -5.93127 0.659427 6.32413 1 1
131 1 16.0719 7.12715 1.7824 -5.67191 1.66758 2.32003 1 1
132 1 16.0457 8.91429 0 0 0 0 1 3
133 1 15.1543 8.02286 0.891429 0 0 0 1 2
134 1 15.1423 9.78059 2.69525 4.15268 -0.4722 6.72134 1 1
135 1 16.9638 8.02836 2.70064 -9.04159 5.06327 9.70806 1 1
136 1 16.9371 9.80572 0.891429 0 0 0 1 2
137 1 17.8286 7.13143 0 0 0 0 1 3
138 1 17.8322 8.92942 1.81191 -4.7588 -4.92667 5.69919 1 1
139 1 19.6039 7.14182 1.79303 -10.2914 1.12265 -0.696772 1 1
140 1 19.6114 8.91429 0 0 0 0 1 3
141 1 18.72 8.02286 0.891429 0 0 0 1 2
142 1 18.7347 9.75427 2.68763 7.68617 6.14621 -4.23645 1 1
143 1 20.4829 8.02984 2.69138 -0.520175 3.61853 -3.1154 1 1
144 1 20.5029 9.80572 0.891429 0 0 0 1 2
145 1 0 10.6971 0 0 0 0 1 3
146 1 0.00165657 12.5214 1.84058 -4.85463 1.56287 7.68092 1 1
147 1 1.77303 10.7218 1.7951 -1.17081 -0.951598 -3.23158 1 1
148 1 1.78286 12.48 0 0 0 0 1 3
149 1 0.891429 11.5886 0.891429 0 0 0 1 2
150 1 0.890855 13.3972 2.72585 1.09523 3.55674 -0.73868 1 1
151 1 2.64881 11.5877 2.6761 5.10903 0.538616 0.63989 1 1
152 1 2.67429 13.3714 0.891429 0 0 0 1 2
153 1 3.56572 10.6971 0 0 0 0 1 3
154 1 3.53063 12.5132 1.80689 3.85869 -7.44181 10.4028 1 1
155 1 5.33111 10.6702 1.78458 -10.0913 3.58906 -2.39057 1 1
156 1 5.34857 12.48 0 0 0 0 1 3
157 1 4.45714 11.5886 0.891429 0 0 0 1 2
158 1 4.46117 13.4538 2.69669 0.250982 6.07964 1.8447 1 1
159 1 6.24673 11.598 2.59001 7.5308 9.64663 10.0321 1 1
160 1 6.24 13.3714 0.891429 0 0 0 1 2
161 1 7.13143 10.6971 0 0 0 0 1 3
162 1 7.1013 12.4545 1.72894 2.69614 -5.68826 -4.53059 1 1
163 1 8.94371 10.6947 1.78846 -4.38006 -0.89262 0.749378 1 1
164 1 8.91429 12.48 0 0 0 0 1 3
165 1 8.02286 11.5886 0.891429 0 0 0 1 2
166 1 8.01413 13.3587 2.66269 5.24574 4.29714 -3.20761 1 1
167 1 9.82295 11.5579 2.66203 -3.55016 3.23076 2.63511 1 1
168 1 9.80572 13.3714 0.891429 0 0 0 1 2
169 1 10.6971 10.6971 0 0 0 0 1 3
170 1 10.6713 12.4808 1.71873 10.5739 -1.23122 -5.39369 1 1
171 1 12.4498 10.6891 1.78143 0.692788 5.50929 -1.55357 1 1
172 1 12.48 12.48 0 0 0 0 1 3
173 1 11.5886 11.5886 0.891429 0 0 0 1 2
174 1 11.6149 13.3682 2.63604 -3.79455 -1.99735 3.9052 1 1
175 1 13.3751 11.5532 2.66318 -2.85049 -0.165886 -1.38159 1 1
176 1 13.3714 13.3714 0.891429 0 0 0 1 2
177 1 14.2629 10.6971 0 0 0 0 1 3
178 1 14.2738 12.4614 1.77136 -3.6419 8.95072 1.88778 1 1
179 1 16.0734 10.6832 1.77599 7.31991 0.675737 -0.707172 1 1
180 1 16.0457 12.48 0 0 0 0 1 3
181 1 15.1543 11.5886 0.891429 0 0 0 1 2
182 1 15.1653 13.3594 2.65083 -1.48976 -4.41612 -6.25809 1 1
183 1 16.9944 11.5897 2.69648 -3.09487 -5.8823 1.66413 1 1
184 1 16.9371 13.3714 0.891429 0 0 0 1 2
185 1 17.8286 10.6971 0 0 0 0 1 3
186 1 17.8186 12.4837 1.78726 4.59599 1.47919 0.544711 1 1
187 1 19.6481 10.709 1.78418 -2.5343 -0.430756 -0.617126 1 1
188 1 19.6114 12.48 0 0 0 0 1 3
189 1 18.72 11.5886 0.891429 0 0 0 1 2
190 1 18.7225 13.3655 2.68539 -4.36705 -1.88268 9.64908 1 1
191 1 20.4919 11.6421 2.7007 2.85454 -3.66752 1.3547 1 1
192 1 20.5029 13.3714 0.891429 0 0 0 1 2
193 1 0 14.2629 0 0 0 0 1 3
194 1 0.00420104 16.0712 1.73491 -2.79609 7.51585 -4.64962 1 1
195 1 1.80963 14.2497 1.79516 -3.77883 0.141556 3.32482 1 1
196 1 1.78286 16.0457 0 0 0 0 1 3
197 1 0.891429 15.1543 0.891429 0 0 0 1 2
198 1 0.872111 16.9408 2.63664 12.1917 4.89441 -4.05015 1 1
199 1 2.67249 15.1693 2.66666 -1.48672 1.40667 3.74607 1 1
200 1 2.67429 16.9371 0.891429 0 0 0 1 2
201 1 3.56572 14.2629 0 0 0 0 1 3
202 1 3.62498 16.0488 1.79099 0.044762 -12.0797 2.83129 1 1
203 1 5.41135 14.2634 1.80251 3.32982 4.87657 -1.33153 1 1
204 1 5.34857 16.0457 0 0 0 0 1 3
205 1 4.45714 15.1543 0.891429 0 0 0 1 2
206 1 4.48018 16.9682 2.69004 -2.68824 -2.04003 -4.75648 1 1
207 1 6.26229 15.1476 2.65372 -0.158897 -6.48279 -0.344707 1 1
208 1 6.24 16.9371 0.891429 0 0 0 1 2
209 1 7.13143 14.2629 0 0 0 0 1 3
210 1 7.14491 16.0588 1.7389 -0.0644873 0.919189 -1.61838 1 1
211 1 8.90646 14.26 1.77231 6.00514 -2.99995 2.73241 1 1
212 1 8.91429 16.0457 0 0 0 0 1 3
213 1 8.02286 15.1543 0.891429 0 0 0 1 2
214 1 8.03694 16.9733 2.64125 -0.755354 -2.04395 -10.5353 1 1
215 1 9.78491 15.1485 2.66593 4.18687 0.359688 -6.39895 1 1
216 1 9.80572 16.9371 0.891429 0 0 0 1 2
217 1 10.6971 14.2629 0 0 0 0 1 3
218 1 10.6997 16.059 1.80905 -2.65935 1.40814 5.39755 1 1
219 1 12.4921 14.2805 1.74517 -4.27783 1.74731 11.6086 1 1
220 1 12.48 16.0457 0 0 0 0 1 3
221 1 11.5886 15.1543 0.891429 0 0 0 1 2
222 1 11.6033 16.997 2.66208 0.751037 -2.77022 -1.1435 1 1
223 1 13.3856 15.1224 2.64352 0.645146 4.54383 9.60818 1 1
224 1 13.3714 16.9371 0.891429 0 0 0 1 2
225 1 14.2629 14.2629 0 0 0 0 1 3
226 1 14.2502 16.0578 1.7599 -0.59312 6.91899 -0.378982 1 1
227 1 16.0382 14.2225 1.77985 -1.8788 -2.69965 7.87404 1 1
228 1 16.0457 16.0457 0 0 0 0 1 3
229 1 15.1543 15.1543 0.891429 0 0 0 1 2
230 1 15.1575 16.9162 2.70154 0.348464 -3.91285 3.19346 1 1
231 1 16.937 15.2099 2.69603 1.24607 5.91946 -1.49088 1 1
232 1 16.9371 16.9371 0.891429 0 0 0 1 2
233 1 17.8286 14.2629 0 0 0 0 1 3
234 1 17.7998 16.0754 1.77507 -4.23207 -3.64355 -1.32128 1 1
235 1 19.623 14.3171 1.76657 2.36133 0.676179 7.53996 1 1
236 1 19.6114 16.0457 0 0 0 0 1 3
237 1 18.72 15.1543 0.891429 0 0 0 1 2
238 1 18.7155 16.955 2.65159 7.75245 -3.2528 -2.71676 1 1
239 1 20.5516 15.1619 2.66299 -5.56981 1.19814 -2.15093 1 1
240 1 20.5029 16.9371 0.891429 0 0 0 1 2
241 1 0 17.8286 0 0 0 0 1 3
242 1 0.035877 19.6199 1.75837 0.0963616 9.09068 -4.30239 1 1
243 1 1.77878 17.8359 1.80539 2.71629 -6.65361 7.87976 1 1
244 1 1.78286 19.6114 0 0 0 0 1 3
245 1 0.891429 18.72 0.891429 0 0 0 1 2
246 1 0.877477 20.5476 2.7161 4.71459 0.410838 0.35983 1 1
247 1 2.68025 18.7622 2.68783 0.753956 -0.690268 0.392681 1 1
248 1 2.67429 20.5029 0.891429 0 0 0 1 2
249 1 3.56572 17.8286 0 0 0 0 1 3
250 1 3.54604 19.6147 1.72905 1.45165 0.703765 -3.6567 1 1
251 1 5.3578 17.8574 1.7948 1.17411 3.25868 0.869623 1 1
252 1 5.34857 19.6114 0 0 0 0 1 3
253 1 4.45714 18.72 0.891429 0 0 0 1 2
254 1 4.4296 20.5272 2.69033 -12.3194 3.78941 -0.255145 1 1
255 1 6.26669 18.7068 2.66287 -0.812274 -6.44672 2.32185 1 1
256 1 6.24 20.5029 0.891429 0 0 0 1 2
257 1 7.13143 17.8286 0 0 0 0 1 3
258 1 7.11523 19.5894 1.78587 3.36475 -3.63887 0.975819 1 1
259 1 8.88541 17.8665 1.81742 -1.84337 -2.08034 -5.2943 1 1
260 1 8.91429 19.6114 0 0 0 0 1 3
261 1 8.02286 18.72 0.891429 0 0 0 1 2
262 1 8.05977 20.5032 2.67995 -10.7627 0.622011 7.79421 1 1
263 1 9.80964 18.7487 2.6981 0.835857 0.141147 -9.2263 1 1
264 1 9.80572 20.5029 0.891429 0 0 0 1 2
265 1 10.6971 17.8286 0 0 0 0 1 3
266 1 10.7103 19.6366 1.80071 8.86273 -9.53241 -0.516674 1 1
267 1 12.4831 17.8964 1.77903 9.062 -2.30776 1.543 1 1
268 1 12.48 19.6114 0 0 0 0 1 3
269 1 11.5886 18.72 0.891429 0 0 0 1 2
270 1 11.577 20.5153 2.72144 -0.742724 -0.405142 5.46789 1 1
271 1 13.3732 18.747 2.68647 -3.41127 -3.88716 2.22199 1 1
272 1 13.3714 20.5029 0.891429 0 0 0 1 2
273 1 14.2629 17.8286 0 0 0 0 1 3
274 1 14.2646 19.5885 1.79358 2.04062 -2.5416 3.77391 1 1
275 1 16.0688 17.8149 1.78889 -1.95759 -1.59778 4.05998 1 1
276 1 16.0457 19.6114 0 0 0 0 1 3
277 1 15.1543 18.72 0.891429 0 0 0 1 2
278 1 15.1889 20.5189 2.6824 2.73966 -1.98045 3.66088 1 1
279 1 16.991 18.6959 2.67966 1.26001 0.341706 4.84169 1 1
280 1 16.9371 20.5029 0.891429 0 0 0 1 2
281 1 17.8286 17.8286 0 0 0 0 1 3
282 1 17.8382 19.6108 1.78854 -0.972615 1.32141 -0.277268 1 1
283 1 19.6102 17.8598 1.7587 -0.58873 8.59869 -1.69178 1 1
284 1 19.6114 19.6114 0 0 0 0 1 3
285 1 18.72 18.72 0.891429 0 0 0 1 2
286 1 18.7119 20.5437 2.66757 0.171522 4.12447 1.65121 1 1
287 1 20.5296 18.7427 2.66953 0.816609 -5.35015 0.689996 1 1
288 1 20.5029 20.5029 0.891429 0 0 0 1 2
289 1 0.0346882 0.0408942 3.58206 6.58047 -7.09149 10.2375 1 1
290 1 21.3647 1.80068 5.36808 0.561723 -1.66567 1.58828 1 1
291 1 1.74069 0.041805 5.38582 7.29402 -8.94234 0.687843 1 1
292 1 1.79602 1.77064 3.5982 -0.817512 1.97962 -1.76007 1 1
293 1 0.909251 0.930766 4.48729 -0.554009 7.57872 4.94906 1 1
294 1 0.890485 2.66741 6.32939 0.53651 -0.467219 -3.46024 1 1
295 1 2.66013 0.85676 6.28738 -9.56309 5.726 2.64921 1 1
296 1 2.70827 2.69299 4.50573 0.78235 -1.96432 2.07301 1 1
297 1 3.52667 0.0373037 3.56608 -9.44623 -1.22156 -7.33401 1 1
298 1 3.52565 1.76114 5.42665 5.1618 2.15984 1.8514 1 1
299 1 5.30193 21.3519 5.40684 -10.7659 -1.92571 -5.11268 1 1
300 1 5.31293 1.81222 3.60561 5.53151 2.12441 0.9099 1 1
301 1 4.4527 0.851225 4.44438 4.89389 3.0456 6.15618 1 1
302 1 4.40741 2.68785 6.2957 -4.59926 -8.26347 6.21031 1 1
303 1 6.21353 0.876624 6.28069 5.37872 -1.12264 1.37559 1 1
304 1 6.24708 2.64331 4.49379 5.14399 -3.92243 6.37136 1 1
305 1 7.11175 0.00224868 3.5877 0.270758 -1.07373 0.177057 1 1
306 1 7.12973 1.78358 5.39208 -4.91559 0.998763 4.81815 1 1
307 1 8.88455 0.026925 5.40351 -5.88557 1.55434 3.23329 1 1
308 1 8.88431 1.74674 3.54664 7.89331 5.30323 5.18155 1 1
309 1 7.97209 0.887514 4.42625 3.70982 -1.21912 0.884907 1 1
310 1 8.05208 2.66521 6.28108 7.67041 -0.724044 1.91279 1 1
311 1 9.7845 0.853933 6.31738 -2.04701 -5.42704 1.92933 1 1
312 1 9.80853 2.67324 4.43828 0.393086 1.63234 4.00872 1 1
313 1 10.654 0.0238239 3.5685 -0.272513 0.432235 1.29016 1 1
314 1 10.6315 1.7993 5.35039 -0.869547 1.02864 -1.31448 1 1
315 1 12.454 21.3631 5.32828 -6.8017 -1.64362 5.52787 1 1
316 1 12.4579 1.77216 3.57022 -5.62986 0.559625 -3.78857 1 1
317 1 11.5303 0.868823 4.44596 -1.95095 1.83693 -1.01566 1 1
318 1 11.5664 2.66426 6.30766 6.77061 0.799778 4.81607 1 1
319 1 13.3352 0.897318 6.2513 1.29239 1.64665 6.3533 1 1
320 1 13.3608 2.64201 4.47602 7.59437 0.973918 -4.50364 1 1
321 1 14.2513 0.00848373 3.57177 0.0173831 -1.53991 -5.93151 1 1
322 1 14.2547 1.76042 5.39436 8.83625 -1.38563 -1.61374 1 1
323 1 16.0295 21.3641 5.33667 -3.73969 4.73178 -2.11006 1 1
324 1 16.0837 1.74924 3.55497 1.29949 6.83708 -1.26462 1 1
325 1 15.1752 0.894062 4.46821 3.25116 7.10103 -2.12069 1 1
326 1 15.1482 2.67421 6.27425 -3.36658 0.453539 -0.451506 1 1
327 1 16.8959 0.853404 6.25311 3.90415 0.801728 5.08263 1 1
328 1 16.9385 2.64094 4.47688 -9.43325 9.19034 0.708526 1 1
329 1 17.8534 21.3801 3.55305 -0.280092 2.20139 -4.13228 1 1
330 1 17.8386 1.74274 5.40117 4.68489 -7.083 -4.16424 1 1
331 1 19.6041 21.375 5.39451 -0.512617 4.55187 -7.78723 1 1
332 1 19.6059 1.78892 3.58118 0.396795 -0.940775 -6.34532 1 1
333 1 18.7504 0.894142 4.47869 -2.97728 4.34851 11.226 1 1
334 1 18.6687 2.64626 6.2736 6.08477 7.81879 1.14295 1 1
335 1 20.5006 0.892575 6.26515 -4.11365 -0.641502 0.674852 1 1
336 1 20.4904 2.64927 4.45419 -2.40721 0.648912 8.91594 1 1
337 1 0.00334709 3.55491 3.58721 7.15283 2.03674 4.30358 1 1
338 1 0.049661 5.33528 5.3925 3.31824 6.02562 -1.86025 1 1
339 1 1.77472 3.55652 5.39268 3.34214 -0.104984 -2.1308 1 1
340 1 1.80659 5.37123 3.59552 -4.14431 -5.87634 -3.41632 1 1
341 1 0.90174 4.41603 4.48521 4.78634 -1.9511 -2.08143 1 1
342 1 0.9184 6.24471 6.23065 -1.78183 -6.76306 5.69678 1 1
343 1 2.69051 4.46042 6.28658 -2.78495 -2.67985 1.03274 1 1
344 1 2.71497 6.28587 4.4656 6.55266 7.16376 0.867292 1 1
345 1 3.57953 3.57742 3.67444 3.87938 -3.19668 -9.99709 1 1
346 1 3.6303 5.38519 5.41175 7.40849 -1.56733 3.43897 1 1
347 1 5.34834 3.54662 5.39892 -5.01051 3.82064 0.286876 1 1
348 1 5.33857 5.32748 3.58493 4.21584 -0.695265 -2.48555 1 1
349 1 4.48929 4.46165 4.54396 0.675694 2.35035 -1.08486 1 1
350 1 4.47747 6.25972 6.30372 -0.989561 6.91317 -0.378575 1 1
351 1 6.27659 4.47972 6.27852 -2.3001 4.83838 -4.17654 1 1
352 1 6.26971 6.20577 4.48381 -1.19345 -5.18759 2.21359 1 1
353 1 7.1044 3.57818 3.60484 2.89834 2.2924 2.55033 1 1
354 1 7.12154 5.35323 5.36831 7.90838 4.70283 -0.838761 1 1
355 1 8.93218 3.55463 5.37575 -0.480939 4.27842 4.12921 1 1
356 1 8.88558 5.36252 3.56702 -7.58039 1.27638 12.3895 1 1
357 1 8.07071 4.47045 4.46443 -3.7479 4.67916 5.18816 1 1
358 1 8.04108 6.21773 6.29188 1.50402 3.25736 6.29617 1 1
359 1 9.79152 4.45744 6.31046 3.62242 -2.6774 8.96861 1 1
360 1 9.79132 6.23447 4.48481 -0.496043 1.359 -2.23219 1 1
361 1 10.7364 3.56679 3.59278 9.28177 -2.65924 -0.367 1 1
362 1 10.638 5.35808 5.36991 7.4656 4.5208 3.43321 1 1
363 1 12.449 3.54012 5.42008 -2.78152 -3.02572 1.86581 1 1
364 1 12.4499 5.35361 3.55917 -0.365175 16.2989 2.78807 1 1
365 1 11.5649 4.43087 4.52056 -0.864777 -0.638683 -2.11058 1 1
366 1 11.5496 6.20344 6.26754 -7.01147 1.64941 -1.23521 1 1
367 1 13.3747 4.45902 6.28116 2.31322 0.593578 3.02289 1 1
368 1 13.3655 6.2718 4.49744 2.6512 -1.35116 7.44298 1 1
369 1 14.2019 3.55711 3.59541 -5.30734 -1.83004 -1.75847 1 1
370 1 14.2577 5.36196 5.39643 -7.98709 -3.57276 -3.79193 1 1
371 1 16.055 3.56619 5.42844 3.1511 3.6575 1.45421 1 1
372 1 16.0068 5.3153 3.59414 -5.80129 0.303768 -0.328853 1 1
373 1 15.1722 4.42038 4.5137 -5.49822 -4.48941 1.67193 1 1
374 1 15.1484 6.27484 6.34133 3.51575 -1.633 2.10374 1 1
375 1 16.9407 4.46281 6.31351 -3.78361 5.49446 1.5905 1 1
376 1 16.9292 6.18518 4.47214 2.27075 4.63901 4.74768 1 1
377 1 17.835 3.54628 3.59013 -2.89131 1.52877 -13.1658 1 1
378 1 17.8199 5.3697 5.3529 -2.27495 -1.10042 3.61266 1 1
379 1 19.595 3.52034 5.33458 -4.02546 -6.90125 0.817204 1 1
380 1 19.6866 5.34075 3.57254 -3.10421 4.80362 4.84813 1 1
381 1 18.7383 4.46105 4.47624 3.70125 0.456514 -6.27268 1 1
382 1 18.7122 6.22058 6.223 1.58387 -3.64176 3.24186 1 1
383 1 20.5078 4.40975 6.32611 2.26743 -3.02197 2.63327 1 1
384 1 20.5282 6.20979 4.46594 9.61504 3.11313 2.87435 1 1
385 1 0.0362039 7.13734 3.59401 4.42045 6.55668 9.91373 1 1
386 1 21.3508 8.93263 5.38417 2.84424 -1.51078 4.67419 1 1
387 1 1.79479 7.12125 5.35278 0.867013 -2.03652 -0.332489 1 1
388 1 1.80254 8.90809 3.57401 7.97453 3.26004 7.35418 1 1
389 1 0.88818 8.03744 4.47568 6.62896 5.78037 0.438564 1 1
390 1 0.881969 9.79344 6.27838 -1.88248 -6.12293 -3.95243 1 1
391 1 2.71172 8.01101 6.27517 5.88301 1.75833 1.576 1 1
392 1 2.64918 9.80599 4.47058 -2.22805 -5.86878 1.51457 1 1
393 1 3.58001 7.14535 3.57168 7.90164 8.01891 10.8876 1 1
394 1 3.57457 8.93698 5.38971 -2.86155 5.62177 1.31894 1 1
395 1 5.33316 7.14941 5.36319 6.40233 2.01895 1.07477 1 1
396 1 5.35286 8.91437 3.57019 3.38001 -2.52901 -4.10154 1 1
397 1 4.48356 8.02455 4.44408 1.59751 -5.13056 1.00865 1 1
398 1 4.49888 9.76756 6.25991 8.67494 0.765789 -0.148798 1 1
399 1 6.24255 8.0231 6.25477 4.63719 0.328015 2.44892 1 1
400 1 6.25093 9.77406 4.44309 11.3451 8.43481 -0.585221 1 1
401 1 7.15208 7.09243 3.6001 2.73513 -1.34872 -7.44266 1 1
402 1 7.15514 8.89166 5.36678 -10.3043 0.177283 2.19788 1 1
403 1 8.87993 7.1253 5.35422 -2.6445 -0.855916 -10.0651 1 1
404 1 8.91486 8.92556 3.57788 -0.342396 1.83484 5.90417 1 1
405 1 8.03216 8.03473 4.48355 -0.4724 1.6573 2.34116 1 1
406 1 8.03668 9.80719 6.248 3.15102 7.10139 7.51775 1 1
407 1 9.79046 8.00547 6.28133 -0.0351153 -3.12887 -8.24477 1 1
408 1 9.82379 9.81331 4.47949 -0.198354 -1.51498 7.23222 1 1
409 1 10.6305 7.16315 3.58525 11.8902 1.25416 4.26009 1 1
410 1 10.708 8.88616 5.36335 -0.0531069 -3.19059 3.87302 1 1
411 1 12.4792 7.14159 5.36961 -5.33121 -0.0727589 2.7032 1 1
412 1 12.483 8.91428 3.56786 0.239095 8.85927 -2.56371 1 1
413 1 11.5536 8.0189 4.45007 3.16929 1.90443 0.145418 1 1
414 1 11.5621 9.79443 6.27292 1.09093 3.53803 -2.37943 1 1
415 1 13.374 7.98236 6.28497 -2.72396 2.26251 6.06177 1 1
416 1 13.3426 9.75566 4.47971 -1.77754 2.50075 -1.35956 1 1
417 1 14.2636 7.12361 3.60221 -0.482104 -5.02651 3.49242 1 1
418 1 14.2618 8.91037 5.3568 -0.992804 -1.72664 8.06885 1 1
419 1 16.0186 7.14404 5.42129 -2.52506 -7.99282 -1.28464 1 1
420 1 16.0158 8.92212 3.62776 2.95078 -4.98655 1.18415 1 1
421 1 15.1747 8.01411 4.50183 -2.40716 -3.29909 -2.2941 1 1
422 1 15.1697 9.81393 6.26797 -4.67389 3.87995 3.585 1 1
423 1 16.9459 8.03312 6.28091 2.07781 -5.24161 -6.16331 1 1
424 1 16.9726 9.8023 4.51018 5.0395 -0.930126 -0.188193 1 1
425 1 17.8504 7.03194 3.57057 0.659957 -3.51148 -1.10526 1 1
426 1 17.8252 8.90626 5.37518 -0.369798 8.26753 -10.6833 1 1
427 1 19.6336 7.17008 5.388 7.10186 3.66793 4.48306 1 1
428 1 19.5777 8.93205 3.54576 1.09322 -3.10417 3.89224 1 1
429 1 18.7006 8.0032 4.49176 0.658964 -7.39847 3.62708 1 1
430 1 18.6956 9.82344 6.28116 0.569092 -5.17595 -4.01045 1 1
431 1 20.4941 8.03044 6.29169 -0.64702 -2.04629 -1.20653 1 1
432 1 20.4796 9.82066 4.46807 2.45229 1.34573 1.48645 1 1
433 1 0.00344869 10.7222 3.5665 0.295754 -2.34828 -4.37439 1 1
434 1 21.3848 12.4491 5.36481 -2.03022 6.0796 -3.87988 1 1
435 1 1.78526 10.7088 5.35129 8.20933 -1.14774 -8.07581 1 1
436 1 1.77669 12.5059 3.6012 -4.32046 -4.66969 -1.91745 1 1
437 1 0.887248 11.5941 4.48672 -0.618121 -7.00206 -5.12824 1 1
438 1 0.87978 13.3615 6.28989 -2.05387 10.53 -0.0813352 1 1
439 1 2.70894 11.5415 6.23625 -8.52194 -1.01213 -7.58642 1 1
440 1 2.69336 13.3374 4.4547 8.27352 -11.5555 -1.01366 1 1
441 1 3.55905 10.6828 3.57454 2.9811 4.69475 7.722 1 1
442 1 3.64162 12.4705 5.34848 3.82136 -3.62666 3.15721 1 1
443 1 5.36695 10.6665 5.38056 -0.937771 5.81804 -5.24207 1 1
444 1 5.35749 12.4558 3.56705 -2.29016 -1.98184 -0.465429 1 1
445 1 4.46325 11.5722 4.44136 5.71131 -0.237276 3.04271 1 1
446 1 4.46047 13.358 6.25 1.85463 9.61506 0.603738 1 1
447 1 6.30441 11.5577 6.28507 0.344825 3.64006 -6.83518 1 1
448 1 6.24026 13.3601 4.46188 -1.69988 -3.57625 2.99631 1 1
449 1 7.12872 10.6774 3.56499 -3.53947 10.9061 7.41633 1 1
450 1 7.11967 12.5075 5.3496 -0.916493 6.72979 3.74875 1 1
451 1 8.90071 10.6847 5.35609 2.54373 -4.72509 1.01457 1 1
452 1 8.91863 12.459 3.52838 -0.536872 -2.94351 2.80896 1 1
453 1 8.02095 11.5939 4.48094 -1.80751 -3.45642 2.04059 1 1
454 1 8.03102 13.3712 6.25711 -5.20179 1.94501 -2.94598 1 1
455 1 9.78315 11.609 6.27266 3.38267 -1.12232 5.80737 1 1
456 1 9.82629 13.3384 4.43255 4.23004 -0.800159 8.17207 1 1
457 1 10.7054 10.7328 3.58467 -2.84079 2.95972 6.20273 1 1
458 1 10.6901 12.4628 5.36811 1.95851 -2.5197 -0.323477 1 1
459 1 12.4948 10.6772 5.39713 -5.19608 2.28791 3.18014 1 1
460 1 12.4863 12.4102 3.55762 -2.57998 -0.726734 0.26367 1 1
461 1 11.5899 11.5808 4.49691 2.00152 8.54345 -4.8011 1 1
462 1 11.5566 13.3863 6.25101 8.14351 2.73834 -0.937657 1 1
463 1 13.35 11.6208 6.29651 0.453295 -2.2822 -1.55819 1 1
464 1 13.3887 13.3254 4.49531 6.63273 1.00768 7.76437 1 1
465 1 14.2518 10.6536 3.54494 10.701 0.173758 -2.68632 1 1
466 1 14.3103 12.4716 5.40036 3.20818 -4.53092 3.44154 1 1
467 1 16.0879 10.676 5.37508 -4.47908 2.9342 5.095 1 1
468 1 16.0856 12.5021 3.55346 1.97023 3.40291 -4.74809 1 1
469 1 15.1935 11.5797 4.4537 5.10468 -0.841422 1.88671 1 1
470 1 15.147 13.3552 6.3036 12.5267 -1.52593 -3.57218 1 1
471 1 16.951 11.5722 6.2767 2.90831 -1.48518 5.80196 1 1
472 1 16.8943 13.3796 4.53777 -7.30422 -1.33376 -2.04787 1 1
473 1 17.8388 10.6914 3.55727 -3.48392 4.91922 2.24242 1 1
474 1 17.8445 12.4998 5.4281 7.87962 4.92443 -4.40305 1 1
475 1 19.5836 10.7451 5.35219 -0.830362 0.426246 -4.1112 1 1
476 1 19.5592 12.4806 3.56709 2.77196 3.1603 6.20737 1 1
477 1 18.687 11.6444 4.49247 -0.894916 0.0188488 6.98557 1 1
478 1 18.7215 13.3915 6.30494 5.07389 -6.16389 5.09487 1 1
479 1 20.4719 11.5926 6.27827 -3.25918 -9.53492 -4.58465 1 1
480 1 20.4378 13.3629 4.47889 -0.700692 -0.686299 3.13783 1 1
481 1 21.3839 14.2827 3.58062 5.24602 0.865514 0.831476 1 1
482 1 0.0161055 16.0117 5.41053 -1.13965 -0.817731 6.74303 1 1
483 1 1.82654 14.2234 5.38661 -3.00327 0.707049 3.7232 1 1
484 1 1.80339 16.0333 3.58154 6.17459 11.069 -2.70481 1 1
485 1 0.871746 15.1083 4.52951 -0.79453 -0.192482 5.07814 1 1
486 1 0.930394 16.9356 6.28734 -2.2404 7.1435 5.12373 1 1
487 1 2.70827 15.1528 6.28416 8.17109 1.10801 6.38273 1 1
488 1 2.6407 16.9521 4.48342 -3.78385 -1.09991 0.967519 1 1
489 1 3.55677 14.2757 3.54772 -0.167952 4.14217 -0.856445 1 1
490 1 3.57306 16.0505 5.37268 8.27946 3.28241 -2.9828 1 1
491 1 5.34091 14.2714 5.37259 3.44345 7.0009 2.28558 1 1
492 1 5.37074 16.0099 3.51702 -9.18627 5.57727 -5.31088 1 1
493 1 4.46531 15.1526 4.4665 -5.40426 5.03207 0.660175 1 1
494 1 4.45035 16.8989 6.24819 2.54837 -0.678653 3.56925 1 1
495 1 6.2257 15.116 6.223 0.300574 5.55087 -0.445236 1 1
496 1 6.27229 16.9139 4.46229 2.98879 10.4503 -1.04501 1 1
497 1 7.16959 14.2667 3.57618 -0.383529 2.70363 -6.35963 1 1
498 1 7.13696 16.028 5.36261 1.23774 6.45129 1.14531 1 1
499 1 8.96085 14.2486 5.36027 -4.04997 -4.62772 -0.590082 1 1
500 1 8.92511 16.0307 3.58183 0.143943 -1.74036 -3.60311 1 1
501 1 8.04684 15.1392 4.43791 2.77183 7.4163 -0.634631 1 1
502 1 8.04809 16.914 6.25027 -3.51403 -5.34414 -0.456362 1 1
503 1 9.76528 15.1664 6.26305 -2.03447 -7.7329 -0.627729 1 1
504 1 9.80761 16.995 4.44721 -8.10837 -4.47483 1.44447 1 1
505 1 10.7521 14.2701 3.53638 1.79095 -1.3216 3.15819 1 1
506 1 10.7105 16.0426 5.37234 -8.50562 -2.0856 -7.4334 1 1
507 1 12.4751 14.2515 5.38599 3.4909 0.33423 1.24507 1 1
508 1 12.5087 16.0427 3.56227 1.97801 0.73214 -4.86997 1 1
509 1 11.5727 15.1427 4.47288 0.143235 -1.44945 1.91013 1 1
510 1 11.5721 16.94 6.29956 -6.60535 0.698506 -2.57531 1 1
511 1 13.3542 15.1405 6.2763 -1.07584 -3.88548 1.68485 1 1
512 1 13.3849 16.9238 4.47403 3.63237 3.28081 1.72772 1 1
513 1 14.2774 14.2518 3.53451 -4.31552 -1.61897 -12.7234 1 1
514 1 14.2224 16.0177 5.37215 6.2319 7.42561 0.978011 1 1
515 1 16.0314 14.2508 5.40833 -0.108157 7.26026 1.29121 1 1
516 1 16.0231 16.0616 3.59278 -0.340086 7.77783 -14.4817 1 1
517 1 15.1422 15.1526 4.47418 12.2636 -1.19186 -5.2686 1 1
518 1 15.1519 16.903 6.29556 8.12018 -0.917643 2.06855 1 1
519 1 16.895 15.139 6.30609 -3.73436 5.29573 3.51066 1 1
520 1 16.9748 16.9137 4.49897 0.691212 11.6561 4.06746 1 1
521 1 17.8266 14.2632 3.59085 -3.2779 7.87515 4.04659 1 1
522 1 17.821 16.0441 5.40165 -4.30189 -4.06377 2.64477 1 1
523 1 19.6171 14.2773 5.44498 -1.93891 -8.03761 -2.46603 1 1
524 1 19.6595 16.0706 3.5779 11.6597 1.56283 4.76347 1 1
525 1 18.7183 15.1549 4.49684 -1.14381 -2.34738 3.01375 1 1
526 1 18.718 16.9672 6.28706 -2.42216 -5.08886 -2.88128 1 1
527 1 20.4937 15.1918 6.34245 -4.97032 -1.01283 4.37558 1 1
528 1 20.5206 16.9799 4.47322 2.77976 8.58135 4.01888 1 1
529 1 0.0469114 17.8458 3.56788 3.21768 -2.86191 3.42001 1 1
530 1 21.3726 19.6274 5.34333 13.0345 4.39648 -6.95888 1 1
531 1 1.79757 17.8522 5.40131 1.23599 -9.40419 0.345187 1 1
532 1 1.81385 19.6279 3.57831 3.14916 1.43175 2.52886 1 1
533 1 0.890099 18.7549 4.45481 -5.05698 1.39028 -6.29415 1 1
534 1 0.82974 20.4947 6.28374 0.405738 3.88378 9.39803 1 1
535 1 2.6831 18.7311 6.32185 -1.95186 -4.15026 -1.52989 1 1
536 1 2.68103 20.5602 4.49353 5.11291 5.4825 3.35959 1 1
537 1 3.53275 17.8475 3.59339 -1.35134 0.157572 -4.88953 1 1
538 1 3.54571 19.648 5.39737 -3.28276 6.0584 -0.197779 1 1
539 1 5.35988 17.7728 5.35735 5.23463 4.07317 -1.68326 1 1
540 1 5.33877 19.5917 3.57723 -1.66637 3.05869 -3.96003 1 1
541 1 4.43611 18.7035 4.50199 -1.17452 6.40494 -6.7418 1 1
542 1 4.42598 20.4883 6.29728 -1.66197 -0.827042 6.08769 1 1
543 1 6.26981 18.7188 6.25791 -5.15131 -1.25535 4.43504 1 1
544 1 6.23231 20.5387 4.48399 7.2059 -0.866918 -3.14602 1 1
545 1 7.16072 17.8213 3.5541 6.7183 -4.106 0.604777 1 1
546 1 7.13527 19.629 5.36938 -8.9661 4.80613 -9.33496 1 1
547 1 8.90773 17.8485 5.38181 -0.295285 -1.41835 1.30275 1 1
548 1 8.91502 19.6371 3.61624 -8.17679 2.99143 6.74829 1 1
549 1 8.02406 18.7193 4.49118 -6.21059 -2.27316 8.63726 1 1
550 1 8.00398 20.5115 6.29842 -9.73313 -6.86563 6.98674 1 1
551 1 9.79718 18.7342 6.27792 -5.43489 9.36411 2.81021 1 1
552 1 9.79653 20.538 4.50045 1.53319 -3.42054 3.62398 1 1
553 1 10.6883 17.8508 3.60372 2.28427 -2.73823 -3.59768 1 1
554 1 10.6631 19.6037 5.35854 0.707174 -2.00321 -5.14732 1 1
555 1 12.4644 17.8381 5.38095 4.08069 3.74994 5.43742 1 1
556 1 12.5214 19.6053 3.607 4.49023 -6.18703 3.3046 1 1
557 1 11.5703 18.7271 4.49544 -4.22141 3.21352 -3.9349 1 1