ITEM: TIMESTEP
1300
ITEM: NUMBER OF ATOMS
2952
ITEM: BOX BOUNDS pp pp mm
0.0000000000000000e+00 2.1394294200000001e+01
0.0000000000000000e+00 2.1394294200000001e+01
-4.4571446250000002e-01 5.3485735500000004e+01
ITEM: ATOMS id type x y z vx vy vz v_is_diamond c_structure_type
1 1 0 0 0 0 0 0 1 3
2 1 1.78286 1.78286 0 0 0 0 1 3
3 1 0.891429 0.891429 0.891429 0 0 0 1 2
4 1 0.876145 2.68219 2.64305 -1.44274 -9.76651 1.05334 1 1
5 1 2.68929 0.850237 2.67671 1.82038 -2.66612 -0.661512 1 1
6 1 2.67429 2.67429 0.891429 0 0 0 1 2
7 1 21.3821 1.76806 1.79067 0.763586 -2.62143 5.95615 1 1
8 1 1.78011 21.3922 1.80115 -3.00037 -2.36069 -2.80048 1 1
9 1 1.79081 3.58069 1.75092 -1.83298 -4.90285 -6.76951 1 1
10 1 3.56868 1.72201 1.78058 4.60381 -5.71506 3.71623 1 1
11 1 3.56572 0 0 0 0 0 1 3
12 1 5.34857 1.78286 0 0 0 0 1 3
13 1 4.45714 0.891429 0.891429 0 0 0 1 2
14 1 4.45123 2.63993 2.66441 -7.67143 9.58674 -6.07053 1 1
15 1 6.23079 0.917401 2.66652 -1.4237 -7.81658 1.91743 1 1
16 1 6.24 2.67429 0.891429 0 0 0 1 2
17 1 7.13818 1.7451 1.79034 -2.17888 1.2537 -3.51494 1 1
18 1 7.13143 0 0 0 0 0 1 3
19 1 8.02286 0.891429 0.891429 0 0 0 1 2
20 1 8.01194 2.6314 2.68087 7.86559 2.75297 3.15022 1 1
21 1 8.91429 1.78286 0 0 0 0 1 3
22 1 9.80326 0.878572 2.69392 -0.438433 -0.380803 2.66389 1 1
23 1 9.80572 2.67429 0.891429 0 0 0 1 2
24 1 8.92245 21.3514 1.79478 -2.04291 6.52305 -5.68187 1 1
25 1 10.6904 1.75892 1.79041 -4.18118 -2.2669 0.270739 1 1
26 1 10.6971 0 0 0 0 0 1 3
27 1 12.48 1.78286 0 0 0 0 1 3
28 1 11.5886 0.891429 0.891429 0 0 0 1 2
29 1 11.5794 2.69607 2.68083 10.981 0.580469 -3.31437 1 1
30 1 13.3243 0.876722 2.68712 -8.22858 0.538972 4.22834 1 1
31 1 13.3714 2.67429 0.891429 0 0 0 1 2
32 1 14.2605 1.78178 1.78304 4.668 -0.912988 -0.637017 1 1
33 1 14.2629 0 0 0 0 0 1 3
34 1 16.0457 1.78286 0 0 0 0 1 3
35 1 15.1543 0.891429 0.891429 0 0 0 1 2
36 1 15.1043 2.70093 2.70137 -8.56462 0.234943 -6.80342 1 1
37 1 16.9196 0.859217 2.67302 4.46832 -4.98904 -6.89856 1 1
38 1 16.9371 2.67429 0.891429 0 0 0 1 2
39 1 16.0423 21.3563 1.73648 5.52015 2.32869 2.62468 1 1
40 1 17.8725 1.80892 1.76999 -3.94402 0.684886 1.02366 1 1
41 1 17.8286 0 0 0 0 0 1 3
42 1 19.6114 1.78286 0 0 0 0 1 3
43 1 18.72 0.891429 0.891429 0 0 0 1 2
44 1 18.7798 2.68768 2.66448 -4.25216 -4.89656 0.496329 1 1
45 1 20.4961 0.868836 2.63239 -3.53645 -1.32013 1.70961 1 1
46 1 20.5029 2.67429 0.891429 0 0 0 1 2
47 1 0 3.56572 0 0 0 0 1 3
48 1 1.78286 5.34857 0 0 0 0 1 3
49 1 0.891429 4.45714 0.891429 0 0 0 1 2
50 1 0.905342 6.2762 2.62815 1.05096 -5.86999 -6.87123 1 1
51 1 2.68236 4.48465 2.66064 -1.06705 1.24039 3.80013 1 1
52 1 2.67429 6.24 0.891429 0 0 0 1 2
53 1 3.56231 5.35614 1.74059 0.411921 -1.67378 6.78024 1 1
54 1 5.36439 3.57846 1.76941 2.82144 -6.51496 8.28348 1 1
55 1 3.56572 3.56572 0 0 0 0 1 3
56 1 5.34857 5.34857 0 0 0 0 1 3
57 1 4.45714 4.45714 0.891429 0 0 0 1 2
58 1 4.43667 6.21332 2.6676 0.144338 -5.88604 2.14728 1 1
59 1 6.25325 4.42748 2.71194 -3.88875 -0.126936 2.50035 1 1
60 1 6.24 6.24 0.891429 0 0 0 1 2
61 1 5.33792 7.13361 1.78722 -0.0415409 -1.28556 -6.99205 1 1
62 1 7.11129 5.31644 1.84461 1.30338 -2.46624 -5.44131 1 1
63 1 7.13143 3.56572 0 0 0 0 1 3
64 1 8.90507 3.52453 1.74295 -5.23639 -1.63739 -3.9329 1 1
65 1 8.02286 4.45714 0.891429 0 0 0 1 2
66 1 7.97604 6.26748 2.69907 -1.40432 2.93526 -4.90771 1 1
67 1 8.91429 5.34857 0 0 0 0 1 3
68 1 9.81071 4.44152 2.6036 -0.0736077 1.54779 -4.41021 1 1
69 1 9.80572 6.24 0.891429 0 0 0 1 2
70 1 10.7156 5.33619 1.77162 -7.36872 5.31969 -7.16988 1 1
71 1 12.4645 3.56662 1.82387 -2.32093 1.97714 -3.70532 1 1
72 1 10.6971 3.56572 0 0 0 0 1 3
73 1 12.48 5.34857 0 0 0 0 1 3
74 1 11.5886 4.45714 0.891429 0 0 0 1 2
75 1 11.5732 6.21955 2.65615 3.29702 -5.47571 7.75486 1 1
76 1 13.3598 4.40847 2.67201 1.72657 -6.88502 -9.1738 1 1
77 1 13.3714 6.24 0.891429 0 0 0 1 2
78 1 14.2645 5.38381 1.76219 1.56281 -2.42306 2.34198 1 1
79 1 16.0348 3.56047 1.81366 0.245499 3.3238 5.2834 1 1
80 1 14.2629 3.56572 0 0 0 0 1 3
81 1 16.0457 5.34857 0 0 0 0 1 3
82 1 15.1543 4.45714 0.891429 0 0 0 1 2
83 1 15.1193 6.25319 2.63757 -3.64259 -2.76043 3.91569 1 1
84 1 16.9651 4.42552 2.65222 -1.13124 -5.67496 9.76337 1 1
85 1 16.9371 6.24 0.891429 0 0 0 1 2
86 1 17.8332 5.32671 1.75775 -2.21081 1.86128 -4.00279 1 1
87 1 19.6486 3.56822 1.77283 5.56566 -1.55481 5.80807 1 1
88 1 21.3757 5.35929 1.77394 -0.772084 -7.70778 -3.33717 1 1
89 1 17.8286 3.56572 0 0 0 0 1 3
90 1 19.6114 5.34857 0 0 0 0 1 3
91 1 18.72 4.45714 0.891429 0 0 0 1 2
92 1 18.6835 6.24453 2.65716 2.85362 -9.52748 -1.84119 1 1
93 1 20.4716 4.48394 2.68747 0.299622 -2.68874 -10.0995 1 1
94 1 20.5029 6.24 0.891429 0 0 0 1 2
95 1 19.6189 7.10591 1.78037 -4.40144 3.7296 0.745252 1 1
96 1 1.77171 7.1243 1.77714 -0.0177782 6.77594 -2.10393 1 1
97 1 0 7.13143 0 0 0 0 1 3
98 1 0.891429 8.02286 0.891429 0 0 0 1 2
99 1 2.66557 8.01431 2.62484 -1.32449 3.56713 2.72585 1 1
100 1 1.78286 8.91429 0 0 0 0 1 3
101 1 0.909974 9.8573 2.63818 1.01019 0.0942666 6.38794 1 1
102 1 2.67429 9.80572 0.891429 0 0 0 1 2
103 1 1.82525 10.71 1.73762 -2.46326 -4.74473 -9.10122 1 1
104 1 3.5414 8.91098 1.76589 0.452326 3.46784 0.368609 1 1
105 1 3.56572 7.13143 0 0 0 0 1 3
106 1 4.45714 8.02286 0.891429 0 0 0 1 2
107 1 6.22312 8.0129 2.63121 -1.87088 -6.40505 5.50699 1 1
108 1 5.34857 8.91429 0 0 0 0 1 3
109 1 4.48718 9.80044 2.6505 2.08414 2.11577 5.18057 1 1
110 1 6.24 9.80572 0.891429 0 0 0 1 2
111 1 7.12465 8.93588 1.77415 3.56952 -4.97877 -7.98043 1 1
112 1 8.90939 7.17839 1.82748 0.160154 -4.48985 -0.266481 1 1
113 1 7.13143 7.13143 0 0 0 0 1 3
114 1 8.02286 8.02286 0.891429 0 0 0 1 2
115 1 9.79558 8.04659 2.69666 -0.854753 -4.5094 2.86763 1 1
116 1 8.02155 9.82354 2.65656 2.45731 -6.70274 0.350155 1 1
117 1 8.91429 8.91429 0 0 0 0 1 3
118 1 9.80572 9.80572 0.891429 0 0 0 1 2
119 1 10.71 8.9077 1.80762 0.553441 -3.88432 1.79219 1 1
120 1 12.524 7.1191 1.7612 -1.86747 5.48159 -2.67413 1 1
121 1 10.6971 7.13143 0 0 0 0 1 3
122 1 11.5886 8.02286 0.891429 0 0 0 1 2
123 1 13.3852 8.03729 2.63777 7.32244 0.243144 -4.16636 1 1
124 1 12.48 8.91429 0 0 0 0 1 3
125 1 11.6144 9.78481 2.6576 -0.0750028 1.81198 9.32159 1 1
126 1 13.3714 9.80572 0.891429 0 0 0 1 2
127 1 12.4903 10.7151 1.74041 2.44058 -4.70528 1.83608 1 1
128 1 16.0607 7.10745 1.79655 5.18999 -1.57987 1.19686 1 1
129 1 14.2519 8.90293 1.72278 -5.97406 -5.53795 5.34638 1 1
130 1 14.2629 7.13143 0 0 0 0 1 3
131 1 15.1543 8.02286 0.891429 0 0 0 1 2
132 1 16.9018 8.05573 2.63956 -9.85008 0.020576 3.04142 1 1
133 1 16.0457 8.91429 0 0 0 0 1 3
134 1 15.1133 9.78207 2.62808 -2.46568 1.81415 -2.37343 1 1
135 1 16.9371 9.80572 0.891429 0 0 0 1 2
136 1 16.0776 10.693 1.73798 10.1937 -7.23307 1.47732 1 1
137 1 17.8388 8.86566 1.77774 -3.05758 -10.16 4.59218 1 1
138 1 21.3818 8.91678 1.78522 -3.77865 2.22411 -2.92655 1 1
139 1 17.8286 7.13143 0 0 0 0 1 3
140 1 18.72 8.02286 0.891429 0 0 0 1 2
141 1 20.5309 8.01127 2.67019 -0.660794 -2.04486 -5.42525 1 1
142 1 19.6114 8.91429 0 0 0 0 1 3
143 1 18.7363 9.76503 2.6213 -0.378028 4.77263 -3.64352 1 1
144 1 20.5029 9.80572 0.891429 0 0 0 1 2
145 1 0 10.6971 0 0 0 0 1 3
146 1 1.78286 12.48 0 0 0 0 1 3
147 1 0.891429 11.5886 0.891429 0 0 0 1 2
148 1 2.74382 11.5861 2.62904 -0.829101 -7.67342 -3.5726 1 1
149 1 0.915143 13.349 2.61787 -1.23333 -1.39454 -1.04036 1 1
150 1 2.67429 13.3714 0.891429 0 0 0 1 2
151 1 0.0031851 12.4249 1.78336 7.45594 -7.54272 -7.3402 1 1
152 1 5.35379 10.6938 1.75072 -0.554932 8.95128 -1.3102 1 1
153 1 3.56407 12.4593 1.76843 -0.282937 -6.34221 6.22995 1 1
154 1 3.56572 10.6971 0 0 0 0 1 3
155 1 5.34857 12.48 0 0 0 0 1 3
156 1 4.45714 11.5886 0.891429 0 0 0 1 2
157 1 6.26264 11.5827 2.64506 -2.4825 -6.46234 10.3561 1 1
158 1 4.4795 13.377 2.65324 -5.06617 -2.26607 0.603397 1 1
159 1 6.24 13.3714 0.891429 0 0 0 1 2
160 1 5.39677 14.3068 1.75562 -5.88778 7.65383 9.45145 1 1
161 1 8.8867 10.7061 1.74022 -3.42221 5.74758 3.13459 1 1
162 1 7.13407 12.4628 1.76467 -1.99585 0.0909588 -0.90466 1 1
163 1 7.13143 10.6971 0 0 0 0 1 3
164 1 8.02286 11.5886 0.891429 0 0 0 1 2
165 1 8.91429 12.48 0 0 0 0 1 3
166 1 9.78216 11.5805 2.65876 -8.89993 9.99893 -5.56978 1 1
167 1 8.05504 13.3627 2.64785 0.134977 2.84757 -5.57075 1 1
168 1 9.80572 13.3714 0.891429 0 0 0 1 2
169 1 10.7316 12.4843 1.79542 -0.216245 -6.16935 1.09611 1 1
170 1 10.6971 10.6971 0 0 0 0 1 3
171 1 12.48 12.48 0 0 0 0 1 3
172 1 11.5886 11.5886 0.891429 0 0 0 1 2
173 1 13.3795 11.5643 2.66856 -3.63336 1.74438 -5.94983 1 1
174 1 11.5843 13.3899 2.67586 0.748355 -1.10366 -14.8918 1 1
175 1 13.3714 13.3714 0.891429 0 0 0 1 2
176 1 12.4604 14.2664 1.76082 3.24098 -0.32589 -3.78299 1 1
177 1 14.301 12.5142 1.76307 -3.1242 5.63092 3.66136 1 1
178 1 14.2629 10.6971 0 0 0 0 1 3
179 1 16.0457 12.48 0 0 0 0 1 3
180 1 15.1543 11.5886 0.891429 0 0 0 1 2
181 1 16.9552 11.5604 2.63454 2.28348 -2.96023 0.629053 1 1
182 1 15.2005 13.3909 2.63306 -1.14467 0.621643 3.75214 1 1
183 1 16.9371 13.3714 0.891429 0 0 0 1 2
184 1 17.8679 12.4698 1.8087 -0.507249 -0.129397 6.71563 1 1
185 1 19.6039 10.6902 1.76152 -8.48381 0.181677 3.57911 1 1
186 1 17.8286 10.6971 0 0 0 0 1 3
187 1 19.6114 12.48 0 0 0 0 1 3
188 1 18.72 11.5886 0.891429 0 0 0 1 2
189 1 20.5047 11.6155 2.64921 1.28279 2.11262 -0.507699 1 1
190 1 18.7064 13.3334 2.67254 0.924849 1.85432 -8.98115 1 1
191 1 20.5029 13.3714 0.891429 0 0 0 1 2
192 1 19.5828 14.2963 1.76694 7.50304 -2.12938 -4.76366 1 1
193 1 1.78624 14.249 1.78751 -3.3518 -2.83729 2.74928 1 1
194 1 0 14.2629 0 0 0 0 1 3
195 1 1.78286 16.0457 0 0 0 0 1 3
196 1 0.891429 15.1543 0.891429 0 0 0 1 2
197 1 0.851572 16.9135 2.67685 3.19255 2.79811 6.37424 1 1
198 1 2.67476 15.1372 2.6465 6.23474 0.956802 -0.38999 1 1
199 1 2.67429 16.9371 0.891429 0 0 0 1 2
200 1 21.345 16.0456 1.79753 -2.47709 -6.01831 0.288583 1 1
201 1 3.56491 16.0295 1.81808 -4.26432 4.06109 1.87436 1 1
202 1 3.56572 14.2629 0 0 0 0 1 3
203 1 5.34857 16.0457 0 0 0 0 1 3
204 1 4.45714 15.1543 0.891429 0 0 0 1 2
205 1 4.46784 16.9373 2.71933 -1.10384 -0.286532 -2.73058 1 1
206 1 6.26986 15.2104 2.64218 5.21708 -1.21213 0.0178685 1 1
207 1 6.24 16.9371 0.891429 0 0 0 1 2
208 1 7.20287 16.1119 1.78536 -2.17566 -0.236109 -5.45499 1 1
209 1 5.32371 17.8208 1.78694 3.38811 -4.75306 3.50419 1 1
210 1 8.93887 14.2238 1.75541 -2.61001 1.38649 -7.14732 1 1
211 1 7.13143 14.2629 0 0 0 0 1 3
212 1 8.02286 15.1543 0.891429 0 0 0 1 2
213 1 8.05214 16.946 2.66267 -8.3896 -4.71583 -2.24295 1 1
214 1 8.91429 16.0457 0 0 0 0 1 3
215 1 9.81251 15.1541 2.61031 4.4756 -0.171501 -7.34514 1 1
216 1 9.80572 16.9371 0.891429 0 0 0 1 2
217 1 8.91372 17.8119 1.77282 1.69672 -1.27189 -8.37551 1 1
218 1 10.673 16.0574 1.74485 2.7059 -4.34292 4.74046 1 1
219 1 10.6971 14.2629 0 0 0 0 1 3
220 1 12.48 16.0457 0 0 0 0 1 3
221 1 11.5886 15.1543 0.891429 0 0 0 1 2
222 1 11.5678 16.9385 2.65844 5.82342 -5.9757 4.48734 1 1
223 1 13.3816 15.1733 2.706 -5.72153 9.64059 -3.3458 1 1
224 1 13.3714 16.9371 0.891429 0 0 0 1 2
225 1 12.492 17.8325 1.78634 -1.58125 2.6771 -1.20455 1 1
226 1 16.0841 14.239 1.78412 1.04101 -1.80882 2.31568 1 1
227 1 14.3018 16.0515 1.76963 0.58168 -3.34002 -4.88323 1 1
228 1 14.2629 14.2629 0 0 0 0 1 3
229 1 16.0457 16.0457 0 0 0 0 1 3
230 1 15.1543 15.1543 0.891429 0 0 0 1 2
231 1 15.1805 16.9197 2.70345 -7.08172 -1.69116 -3.2849 1 1
232 1 16.9728 15.1451 2.65165 0.438808 -10.4154 -8.87076 1 1
233 1 16.9371 16.9371 0.891429 0 0 0 1 2
234 1 17.8223 15.9927 1.80193 1.00137 2.49099 0.574403 1 1
235 1 17.8286 14.2629 0 0 0 0 1 3
236 1 19.6114 16.0457 0 0 0 0 1 3
237 1 18.72 15.1543 0.891429 0 0 0 1 2
238 1 18.7179 16.8919 2.68911 -0.109452 -6.96889 -7.16631 1 1
239 1 20.4787 15.1389 2.68619 1.20107 6.51811 7.46486 1 1
240 1 20.5029 16.9371 0.891429 0 0 0 1 2
241 1 19.6121 17.8476 1.7683 0.0883033 -1.67261 -5.87111 1 1
242 1 1.73999 17.7853 1.81792 -2.37408 -1.23095 -2.32232 1 1
243 1 0 17.8286 0 0 0 0 1 3
244 1 1.78286 19.6114 0 0 0 0 1 3
245 1 0.891429 18.72 0.891429 0 0 0 1 2
246 1 0.902693 20.4806 2.64325 10.5639 -2.99061 -5.24242 1 1
247 1 2.68143 18.7048 2.67916 -9.65737 -3.36053 -1.97057 1 1
248 1 2.67429 20.5029 0.891429 0 0 0 1 2
249 1 3.5663 19.6023 1.75453 3.71735 7.5398 6.19895 1 1
250 1 0.020281 19.5894 1.78089 1.90774 10.5165 -3.50501 1 1
251 1 5.38333 0.0141803 1.76573 9.30206 -1.80774 -5.8998 1 1
252 1 3.56572 17.8286 0 0 0 0 1 3
253 1 5.34857 19.6114 0 0 0 0 1 3
254 1 4.45714 18.72 0.891429 0 0 0 1 2
255 1 4.422 20.4782 2.69549 0.119031 -0.985772 2.01981 1 1
256 1 6.21853 18.6929 2.65354 -6.71955 -5.18794 -3.32303 1 1
257 1 6.24 20.5029 0.891429 0 0 0 1 2
258 1 7.15802 19.5938 1.75953 0.722499 1.46277 -1.64547 1 1
259 1 7.13143 17.8286 0 0 0 0 1 3
260 1 8.02286 18.72 0.891429 0 0 0 1 2
261 1 8.02366 20.4483 2.67167 -7.01303 1.84999 0.560285 1 1
262 1 8.91429 19.6114 0 0 0 0 1 3
263 1 9.81276 18.7207 2.68443 -3.7814 -5.34551 -4.55761 1 1
264 1 9.80572 20.5029 0.891429 0 0 0 1 2
265 1 10.7319 19.5997 1.74215 1.04111 -7.16518 -2.70468 1 1
266 1 12.4344 21.3608 1.73328 -2.35001 -1.41321 -0.516485 1 1
267 1 10.6971 17.8286 0 0 0 0 1 3
268 1 12.48 19.6114 0 0 0 0 1 3
269 1 11.5886 18.72 0.891429 0 0 0 1 2
270 1 11.5525 20.4964 2.60649 -1.37084 -2.59008 1.60667 1 1
271 1 13.3601 18.7342 2.69548 -0.973845 -0.963168 3.96276 1 1
272 1 13.3714 20.5029 0.891429 0 0 0 1 2
273 1 14.2342 19.6381 1.78335 -2.49932 6.15892 -8.91653 1 1
274 1 16.0791 17.8033 1.79183 5.79052 3.31397 7.89444 1 1
275 1 14.2629 17.8286 0 0 0 0 1 3
276 1 16.0457 19.6114 0 0 0 0 1 3
277 1 15.1543 18.72 0.891429 0 0 0 1 2
278 1 15.1642 20.482 2.63031 4.28411 3.75245 -2.95313 1 1
279 1 16.9762 18.6913 2.64527 -3.8947 3.4919 4.19216 1 1
280 1 16.9371 20.5029 0.891429 0 0 0 1 2
281 1 19.6392 21.3244 1.75092 -3.75598 2.30221 4.48511 1 1
282 1 17.8494 19.6054 1.77512 -2.9071 5.34092 7.53782 1 1
283 1 17.8286 17.8286 0 0 0 0 1 3
284 1 19.6114 19.6114 0 0 0 0 1 3
285 1 18.72 18.72 0.891429 0 0 0 1 2
286 1 18.7218 20.4587 2.66092 2.82135 1.11152 -5.97006 1 1
287 1 20.5619 18.6887 2.67011 -3.09966 -2.42897 -3.79292 1 1
288 1 20.5029 20.5029 0.891429 0 0 0 1 2
289 1 1.75471 1.80064 3.55387 -5.94208 19.9596 -0.528454 1 1
290 1 0.89944 0.895662 4.46308 2.61437 0.275777 -4.73824 1 1
291 1 2.65029 2.68237 4.41339 -6.27942 -1.53423 1.92024 1 1
292 1 1.77667 21.3908 5.36501 9.22751 -3.08127 0.780801 1 1
293 1 1.75329 3.56158 5.31027 -1.62923 1.38866 -0.296091 1 1
294 1 21.3904 1.81141 5.32624 4.65818 0.0108377 3.13308 1 1
295 1 0.029794 21.3797 3.5325 -7.48079 -4.44886 4.16464 1 1
296 1 3.55308 1.77611 5.35198 9.43085 6.19611 2.522 1 1
297 1 5.36178 1.77592 3.5605 0.906107 -9.2969 0.698152 1 1
298 1 4.45514 0.891004 4.48564 -0.10619 8.35504 11.3526 1 1
299 1 6.28079 0.908089 6.23487 -3.42339 -1.07783 -5.16692 1 1
300 1 6.2262 2.64604 4.4771 -3.50114 -0.490523 -2.77376 1 1
301 1 3.56491 21.3894 3.54909 0.98491 -0.570446 -3.46076 1 1
302 1 7.15881 0.004251 3.53201 0.128572 -5.3696 -4.35262 1 1
303 1 5.33524 0.0314168 5.33442 -9.29511 -2.41803 -5.32307 1 1
304 1 7.15521 3.50466 3.60256 6.38454 -1.76407 -3.19784 1 1
305 1 7.14684 1.78141 5.334 -3.0898 -4.26817 -1.52565 1 1
306 1 8.93489 1.78367 3.54707 0.864866 6.64928 -0.807239 1 1
307 1 8.04997 0.890351 4.39204 -2.91298 0.085655 -5.78283 1 1
308 1 8.03972 2.70367 6.21446 -1.16347 3.61168 -2.66803 1 1
309 1 9.77372 0.844086 6.18922 -9.03733 3.71081 -9.51094 1 1
310 1 9.81751 2.69175 4.42782 -0.716763 -3.65681 1.24174 1 1
311 1 10.6925 1.78207 5.32602 -0.25214 -5.97961 -2.47326 1 1
312 1 12.4335 1.77364 3.55936 3.36283 2.14856 2.34769 1 1
313 1 11.5596 0.850152 4.41533 1.97589 5.82422 -4.13381 1 1
314 1 11.5904 2.67054 6.24646 -5.14293 1.86437 -3.54274 1 1
315 1 13.3295 2.66887 4.43678 -7.5787 -6.75468 0.711863 1 1
316 1 13.3306 0.877987 6.23815 -1.96445 -1.59365 4.74088 1 1
317 1 12.4725 3.54981 5.34253 -4.46999 -4.51457 3.54928 1 1
318 1 14.2623 1.76729 5.344 -2.14187 10.4844 -6.37112 1 1
319 1 12.4718 21.3543 5.31981 -6.21701 1.09044 1.89847 1 1
320 1 14.2301 3.55242 3.56837 -3.03082 -11.4913 4.16774 1 1
321 1 16.0212 1.78632 3.53296 -14.2137 1.85303 4.83883 1 1
322 1 15.11 0.885296 4.41669 0.427522 3.35916 8.21968 1 1
323 1 15.1092 2.6549 6.18331 -4.12813 0.181742 1.95318 1 1
324 1 16.8735 2.65099 4.40745 -9.93174 -6.02168 1.26067 1 1
325 1 17.8465 1.75997 5.32132 -4.56815 -0.303959 -0.366332 1 1
326 1 16.0306 0.0476178 5.32749 -0.223559 2.43963 2.50577 1 1
327 1 19.636 1.75014 3.5554 0.901305 4.13094 -1.35637 1 1
328 1 18.7443 0.881461 4.49321 1.26578 -1.86242 4.08007 1 1
329 1 20.4917 2.66614 4.44226 -3.68511 1.27276 -3.43604 1 1
330 1 17.8405 0.0180935 3.55569 -6.86239 2.3954 0.938159 1 1
331 1 19.6011 0.0209024 5.33869 -1.63105 9.43929 1.66197 1 1
332 1 21.3901 3.60154 3.51619 -0.314315 -3.4734 5.86146 1 1
333 1 1.73808 5.35328 3.50417 2.44934 -6.78523 0.520816 1 1
334 1 0.88951 4.45899 4.40403 -2.81408 6.92149 -5.77329 1 1
335 1 2.64865 4.3952 6.23179 -3.17438 0.665164 -4.77043 1 1
336 1 2.64267 6.257 4.42131 1.37376 -7.25142 10.5255 1 1
337 1 3.58937 3.52424 3.53282 -4.39292 5.82245 -5.16317 1 1
338 1 21.392 5.38925 5.30214 -2.75567 -2.49944 -3.36094 1 1
339 1 3.54767 5.30724 5.3073 -7.97571 -4.28875 5.00834 1 1
340 1 5.3434 3.54433 5.33518 -5.52164 1.4844 -1.08566 1 1
341 1 5.3572 5.31827 3.5845 -6.56243 6.26564 6.2443 1 1
342 1 4.42199 4.42889 4.45456 5.94513 3.84348 -2.51097 1 1
343 1 4.40692 6.21883 6.18846 -1.47226 5.80734 -3.10886 1 1
344 1 6.2342 6.22978 4.47849 -4.99343 3.24491 1.80764 1 1
345 1 7.14635 5.33408 5.38171 2.59856 -1.54508 7.42864 1 1
346 1 5.34261 7.12238 5.31417 3.18799 -0.786767 -0.559921 1 1
347 1 6.24198 4.46213 6.27115 -2.74386 -6.44297 -0.465041 1 1
348 1 8.94376 3.53678 5.3478 5.14765 -5.33665 3.2664 1 1
349 1 10.7409 3.57516 3.53547 -2.04249 0.645444 -3.48829 1 1
350 1 8.9026 5.30968 3.56857 -0.984622 2.26434 0.817875 1 1
351 1 8.01844 4.39526 4.48487 -5.29147 -6.01468 0.169034 1 1
352 1 8.01756 6.20934 6.26409 -1.00196 -2.28116 1.83863 1 1
353 1 9.8037 4.42835 6.22414 -1.47494 -4.98473 3.65999 1 1
354 1 9.80669 6.21402 4.44928 -1.11878 1.3876 -8.00661 1 1
355 1 10.741 5.353 5.32413 -0.620835 -3.64681 0.907936 1 1
356 1 12.4603 5.31861 3.52866 5.10869 -4.13883 1.17221 1 1
357 1 11.5736 4.42146 4.412 0.951515 1.87059 -2.58031 1 1
358 1 13.362 6.22084 4.44159 -4.9911 -5.81447 0.389807 1 1
359 1 14.2504 5.33849 5.30855 0.75066 3.9311 1.08439 1 1
360 1 16.0191 3.54795 5.27933 9.25382 -5.96375 10.3472 1 1
361 1 17.8299 3.55901 3.49881 -2.08316 1.97695 0.697318 1 1
362 1 16.029 5.32825 3.52674 1.41265 -3.62141 7.32046 1 1
363 1 15.0876 4.46928 4.42599 -4.36353 1.09175 0.942006 1 1
364 1 16.8799 6.24607 4.44017 -3.54356 2.73906 0.712 1 1
365 1 16.9083 4.43486 6.20838 2.01085 -1.0784 2.37911 1 1
366 1 16.0281 7.11978 5.29418 5.09015 3.85788 -5.12701 1 1
367 1 15.1732 6.2509 6.1818 -1.29076 2.18382 -3.72127 1 1
368 1 19.5752 3.54488 5.32566 -6.20913 -5.06831 9.65609 1 1
369 1 17.8116 5.32429 5.30178 -1.84259 -8.71496 -2.03696 1 1
370 1 19.5925 5.34324 3.56239 -3.11636 -6.40585 4.27731 1 1
371 1 18.729 4.47227 4.39891 -7.04272 -0.940869 -8.28693 1 1
372 1 20.5245 4.41806 6.23173 -4.02276 0.664682 -2.56677 1 1
373 1 20.4728 6.24926 4.41287 6.16892 8.30658 0.346887 1 1
374 1 19.6156 7.16812 5.34699 0.391183 -3.46606 -8.81331 1 1
375 1 0.00283206 7.11059 3.57374 -6.35455 2.61057 -3.49698 1 1
376 1 1.74994 7.11302 5.31665 -4.73058 -2.17077 -3.15725 1 1
377 1 1.82203 8.91892 3.52996 -1.88322 0.75405 -2.45382 1 1
378 1 0.885809 8.05111 4.41075 -5.06755 -0.0928605 2.98901 1 1
379 1 2.67948 8.04531 6.19963 -0.0229874 6.35264 6.04987 1 1
380 1 0.920542 9.80659 6.21762 0.717921 -5.14569 6.60558 1 1
381 1 2.65694 9.81535 4.45997 1.00946 -0.375252 3.35937 1 1
382 1 0.00661387 8.93102 5.33038 -3.26915 -0.495732 4.02037 1 1
383 1 1.85479 10.7515 5.33661 0.953819 -4.55907 -11.078 1 1
384 1 3.53272 7.10998 3.56295 3.79804 1.11833 9.46245 1 1
385 1 7.16494 7.14991 3.53388 -1.73042 10.9968 2.7494 1 1
386 1 3.60375 10.6976 3.53443 -2.38285 -4.8251 -4.03392 1 1
387 1 3.56871 8.9266 5.30447 4.3377 0.953951 -4.77893 1 1
388 1 5.36791 8.9012 3.49626 2.46559 -9.77616 4.02378 1 1
389 1 4.42353 7.94469 4.40768 -6.27395 -3.18372 2.14756 1 1
390 1 4.50827 9.78716 6.23855 -2.60436 3.05303 4.7039 1 1
391 1 6.22658 9.80945 4.41162 -1.08384 0.4068 9.88304 1 1
392 1 8.89282 7.11368 5.31837 -1.22918 -0.849717 0.131978 1 1
393 1 7.06761 8.91332 5.28676 -0.562203 -5.90833 1.66787 1 1
394 1 8.92105 8.96642 3.58558 0.122799 -2.66766 2.06705 1 1
395 1 7.98912 8.04377 4.43668 -3.72763 -3.89143 -2.95212 1 1
396 1 9.80976 9.8201 4.48022 1.5075 -1.6701 -8.52095 1 1
397 1 10.6828 8.89962 5.34715 -9.29656 -3.85672 -0.338755 1 1
398 1 10.6815 10.7067 3.58958 3.05516 0.763877 2.71824 1 1
399 1 9.8146 7.99538 6.2085 0.177681 -6.63562 3.72526 1 1
400 1 12.4902 7.14066 5.34054 -9.89936 1.73412 2.131 1 1
401 1 10.7143 7.09229 3.58337 4.7585 -5.94789 2.45883 1 1
402 1 12.4805 8.92543 3.50683 -0.738252 -7.23096 -1.47016 1 1
403 1 11.6092 8.02345 4.41858 -0.213477 0.622381 -2.41494 1 1
404 1 13.3386 9.79362 4.40908 -3.12036 -0.115329 2.2504 1 1
405 1 14.2523 7.08741 3.5312 0.265334 0.231812 5.30676 1 1
406 1 14.2273 8.9375 5.37037 -2.38282 5.20405 -5.21965 1 1
407 1 17.8041 7.09453 3.52295 0.983764 -0.266975 -6.93131 1 1
408 1 16.045 8.8893 3.50178 2.93271 7.40139 -2.43331 1 1
409 1 15.1217 8.01658 4.38178 -2.7126 -0.246771 -7.56927 1 1
410 1 16.9268 9.79076 4.42523 6.03795 -1.97137 -2.41013 1 1
411 1 16.037 10.6913 5.3357 -3.22182 -2.99689 0.528542 1 1
412 1 16.8888 7.96933 6.201 -0.476706 1.44541 -2.88334 1 1
413 1 17.8246 8.92889 5.33983 0.229235 4.86976 0.962468 1 1
414 1 19.6171 8.90716 3.5644 0.0541472 -0.223505 1.30471 1 1
415 1 18.7009 8.0125 4.45494 -1.79303 -0.733223 -0.319968 1 1
416 1 18.7189 9.79492 6.2189 5.20008 -3.36718 4.03741 1 1
417 1 20.5505 9.87361 4.42245 1.87888 13.0711 -8.14631 1 1
418 1 20.4964 8.00536 6.19818 -5.4181 -1.81205 -0.873956 1 1
419 1 19.6309 10.6988 5.32409 0.193407 -4.37122 1.464 1 1
420 1 0.0123258 10.7129 3.52711 4.68964 2.96646 -4.83942 1 1
421 1 1.79572 12.5031 3.53091 -4.96479 -15.0685 -0.732228 1 1
422 1 0.937319 11.6246 4.4308 3.84427 -4.9691 -4.38051 1 1
423 1 2.67831 11.6121 6.21092 -2.84797 -1.24817 -5.36677 1 1
424 1 0.908942 13.3886 6.2227 -0.625971 4.64974 -6.11232 1 1
425 1 2.68351 13.3883 4.44078 -3.1644 -2.25333 -2.0519 1 1
426 1 21.3508 12.4797 5.33116 1.62584 -1.50339 -0.0134964 1 1
427 1 5.3819 10.6589 5.32771 -1.19941 -2.96391 -2.13776 1 1
428 1 3.57808 14.2683 3.48768 0.608251 8.97873 6.05655 1 1
429 1 3.55873 12.4848 5.35173 -9.04912 2.31199 4.83779 1 1
430 1 5.35418 12.4443 3.54938 4.44239 -1.88988 -4.2758 1 1
431 1 4.45085 11.5903 4.4672 -4.1597 -5.16053 2.43112 1 1
432 1 6.23602 13.3239 4.43536 1.51309 -6.12644 0.0598943 1 1
433 1 7.12229 14.2743 3.47379 -2.04564 -1.95734 -13.2511 1 1
434 1 6.28565 11.5636 6.2094 -11.0307 -1.47613 0.773548 1 1
435 1 7.12596 10.7339 3.57056 4.07951 6.48268 5.93605 1 1
436 1 7.13137 12.4607 5.28641 0.913267 -1.46042 2.61207 1 1
437 1 8.95642 10.6766 5.35014 11.7261 1.72411 -1.66668 1 1
438 1 8.9316 12.4856 3.56782 -2.83177 -0.598723 1.11695 1 1
439 1 8.0141 11.5701 4.45421 -7.12563 -2.34444 -5.98791 1 1
440 1 9.82165 11.5912 6.21893 4.80494 -1.3384 9.51073 1 1
441 1 7.96518 13.3588 6.24978 -7.55927 4.89121 -0.468887 1 1
442 1 9.80783 13.4225 4.43424 1.25128 4.43633 5.36406 1 1
443 1 10.69 14.2896 3.53846 -0.108041 2.8146 -5.86295 1 1
444 1 12.406 10.7001 5.32218 3.47969 2.40623 0.875551 1 1
445 1 10.6797 12.5144 5.28081 0.489309 9.10135 -5.47445 1 1
446 1 12.4376 12.442 3.54848 1.58505 6.62286 1.4538 1 1
447 1 11.5498 11.6221 4.40643 -1.68482 2.27797 -5.3011 1 1
448 1 13.3461 11.5855 6.20728 1.18671 -5.37932 -1.64484 1 1
449 1 11.5996 13.4354 6.23208 1.15787 8.32241 -0.700419 1 1
450 1 13.3663 13.3782 4.4028 -2.81984 4.67851 -2.40879 1 1
451 1 14.282 10.66 3.57015 -2.7532 -1.84619 -1.61564 1 1
452 1 14.2582 12.4601 5.3411 -10.9401 0.80472 -5.93564 1 1
453 1 16.0628 12.4756 3.56334 2.75577 -2.67976 6.97226 1 1
454 1 15.1774 11.5469 4.46095 -1.4968 1.33655 -3.95261 1 1
455 1 16.9782 11.6 6.21588 -2.43117 3.31445 -2.40359 1 1
456 1 16.9254 13.3497 4.42857 3.36551 -2.38765 -0.491961 1 1
457 1 17.875 12.4918 5.30822 2.54221 -3.55635 -3.79952 1 1
458 1 15.1615 13.3992 6.22974 -0.864936 3.48432 1.20398 1 1
459 1 17.8141 10.6717 3.55387 4.06627 -6.03552 2.36845 1 1
460 1 19.6075 12.5077 3.56881 1.00425 7.19388 5.21316 1 1
461 1 18.7605 11.5914 4.43543 -7.24857 2.57868 -2.89634 1 1
462 1 18.7405 13.3865 6.24848 6.15225 1.42744 0.812303 1 1
463 1 20.4932 13.3771 4.47397 0.417815 1.63701 2.51476 1 1
464 1 20.4648 11.5808 6.21155 8.33853 -5.18913 -5.87042 1 1
465 1 1.76697 14.3101 5.3213 -6.44771 5.53809 2.13385 1 1
466 1 1.77614 16.0389 3.52303 -0.0029353 5.71394 -3.8777 1 1
467 1 0.893227 15.1628 4.44102 10.0969 -7.47775 0.926969 1 1
468 1 2.71507 15.1453 6.24513 1.22626 3.6227 7.37901 1 1
469 1 2.66074 16.9203 4.41325 -3.10533 -0.249889 -7.75644 1 1
470 1 21.3846 15.9977 5.31366 6.82467 -2.57038 0.385383 1 1
471 1 0.00795954 14.2371 3.55234 1.55593 -8.78139 3.56395 1 1
472 1 1.77167 17.7695 5.36239 -10.6383 -3.97993 -2.75687 1 1
473 1 5.36268 14.2453 5.34343 4.57049 0.96836 -1.17901 1 1
474 1 3.60179 16.0422 5.3522 -0.419035 2.88986 -5.50904 1 1
475 1 5.3554 16.0748 3.56806 -5.36399 -5.58129 11.616 1 1
476 1 4.50649 15.1324 4.43574 -2.05457 -0.662895 0.901272 1 1
477 1 4.45896 16.9642 6.23203 5.42239 3.61506 5.79744 1 1
478 1 6.20077 15.1606 6.24212 8.26572 0.848318 -3.73996 1 1
479 1 6.22393 16.9381 4.4904 8.89422 -3.17262 -0.928276 1 1
480 1 7.08177 16.0246 5.34735 -0.3739 -5.539 -0.57552 1 1
481 1 8.85661 14.2432 5.31356 -4.55377 -2.60994 4.34348 1 1
482 1 8.90157 16.0132 3.55142 -0.811097 6.27834 -1.42226 1 1
483 1 8.00448 15.1473 4.41612 -3.55797 -1.16869 0.79677 1 1
484 1 8.02515 16.8701 6.23075 7.98478 2.05625 1.40343 1 1
485 1 9.77047 15.1113 6.1824 4.02615 -5.93003 4.84676 1 1
486 1 9.79737 16.8956 4.43869 0.911533 -6.16791 9.00433 1 1
487 1 10.6564 16.0337 5.32797 -7.26608 2.5192 2.9079 1 1
488 1 8.90189 17.7806 5.29617 8.5505 -5.96383 2.38656 1 1
489 1 10.6902 17.8227 3.56227 -0.674911 0.434305 -3.05121 1 1
490 1 12.4161 14.3047 5.30829 2.79156 1.31828 3.98083 1 1
491 1 12.4447 16.0455 3.56751 3.84726 2.21588 -1.94784 1 1
492 1 11.5206 15.1795 4.46495 5.44788 1.274 -1.06081 1 1
493 1 11.5561 16.91 6.25875 2.30571 1.73348 -6.22504 1 1
494 1 13.3702 16.9117 4.44482 -1.9885 5.08208 -1.11333 1 1
495 1 13.3353 15.1313 6.1997 -7.40687 -2.44968 -1.44581 1 1
496 1 12.4587 17.7772 5.304 3.07534 -0.964211 2.73863 1 1
497 1 14.2784 14.2665 3.51252 -1.71537 -1.66127 3.10532 1 1
498 1 16.0405 14.2649 5.32686 0.795461 -4.88368 1.61395 1 1
499 1 17.8505 14.24 3.53904 -6.38912 -9.15224 1.53494 1 1
500 1 14.2465 16.0103 5.33158 4.76174 -2.51132 2.48248 1 1
501 1 14.2937 17.8568 3.57216 0.535751 -6.6014 3.76911 1 1
502 1 16.0238 16.0293 3.54666 9.07347 -8.64903 4.13853 1 1
503 1 15.1569 15.1596 4.4411 3.7154 -0.0387273 -3.24554 1 1
504 1 16.9066 16.9589 4.45097 -7.78495 6.29785 10.7815 1 1
505 1 16.9456 15.1326 6.20249 -2.44744 1.30583 -2.6481 1 1
506 1 17.8159 16.0561 5.3215 -1.02815 -3.40693 2.00309 1 1
507 1 19.6011 14.2892 5.36798 -0.826709 2.0495 -0.656708 1 1
508 1 19.5942 16.0398 3.61298 1.19387 -0.390059 -1.65764 1 1
509 1 18.6979 15.1465 4.44838 -1.37393 -5.74677 1.2207 1 1
510 1 20.4864 16.9271 4.42906 9.42149 -2.91931 6.5374 1 1
511 1 19.6525 17.8638 5.33437 -6.67587 4.29568 7.26905 1 1
512 1 20.5312 15.1583 6.25538 3.55751 1.5487 -0.799827 1 1
513 1 1.76051 19.583 3.5631 -4.80535 9.43359 3.64694 1 1
514 1 0.897285 18.6204 4.44713 4.41184 7.38132 2.31416 1 1
515 1 0.868164 20.5017 6.21737 0.236468 -4.59181 3.54559 1 1
516 1 2.6686 20.5075 4.45456 -6.29529 1.70989 -5.39287 1 1
517 1 21.3441 17.8137 3.59352 -6.22736 3.21387 0.738052 1 1
518 1 0.0135551 19.5681 5.31413 6.73513 -2.4249 0.210993 1 1
519 1 2.69318 18.6844 6.19978 6.68493 -2.65747 -5.91096 1 1
520 1 5.35916 17.7802 5.3233 1.17282 -4.34029 9.18496 1 1
521 1 3.5727 17.831 3.58682 -4.70947 -1.56692 -11.1925 1 1
522 1 3.55883 19.6182 5.32578 -6.94459 0.257631 5.56293 1 1
523 1 5.37202 19.5891 3.55144 0.141744 -5.24846 4.93505 1 1
524 1 4.47031 18.669 4.4432 -2.40626 -3.1858 -5.07409 1 1
525 1 4.45195 20.5016 6.19859 -4.90233 -0.166022 0.355941 1 1
526 1 6.21396 18.6635 6.23761 -4.65784 -0.69366 -0.510182 1 1
527 1 6.26017 20.5591 4.4692 4.39043 -5.23552 -1.65531 1 1
528 1 7.11447 17.8025 3.59806 -2.62208 -7.87008 2.61992 1 1
529 1 7.12417 19.6192 5.3292 -1.41328 0.631091 7.46693 1 1
530 1 8.90705 0.0115094 5.28789 -0.309969 1.29308 -1.28667 1 1
531 1 8.87447 19.6075 3.59721 -2.94167 3.21545 4.62659 1 1
532 1 7.97546 18.6988 4.46917 -2.22907 2.56836 -0.959387 1 1
533 1 8.00502 20.5188 6.24308 6.37684 5.64254 -1.76961 1 1
534 1 9.79158 18.7046 6.22267 0.0475949 -0.845636 -7.29708 1 1
535 1 9.80474 20.4548 4.44292 3.28704 1.08407 -1.45127 1 1
536 1 10.6897 19.5745 5.32152 -4.73841 1.64846 -2.65612 1 1
537 1 10.6876 21.3327 3.51906 5.27761 -0.945025 1.06511 1 1
538 1 12.4991 19.5958 3.54516 -8.00226 0.819347 -1.9918 1 1
539 1 11.5535 18.7225 4.40854 1.2946 0.991632 1.50753 1 1
540 1 13.357 18.6512 6.16776 -1.66696 0.82738 -1.24123 1 1
541 1 13.3381 20.4839 4.42137 -4.24266 1.83076 -0.128928 1 1
542 1 16.025 17.8292 5.32777 -1.65403 -5.76432 3.2925 1 1
543 1 14.2378 21.346 3.50111 6.02974 4.69661 9.03539 1 1
544 1 14.2104 19.6331 5.34291 -5.90944 -10.5419 -1.11169 1 1
545 1 16.0766 19.5864 3.53791 10.5309 -1.85385 0.841094 1 1
546 1 15.12 18.7249 4.4119 2.14888 -6.12605 3.28496 1 1
547 1 16.8692 18.7169 6.19162 -4.66489 -1.99691 -3.50709 1 1
548 1 16.9343 20.4939 4.44889 5.96404 -5.83045 4.90923 1 1
549 1 17.7908 19.5557 5.30062 4.84563 -3.29796 7.92733 1 1
550 1 17.8389 17.8223 3.54659 1.89609 2.71641 0.587047 1 1
551 1 19.6156 19.5784 3.53644 -6.21347 8.57131 -4.32708 1 1
552 1 18.7798 18.7087 4.42431 4.66943 -2.48045 -0.462873 1 1
553 1 18.6973 20.4731 6.24971 -5.97647 0.419988 2.70403 1 1
554 1 20.514 18.6823 6.23794 2.58772 -1.81444 3.17827 1 1
555 1 20.5046 20.4664 4.43626 4.92605 5.52649 -3.24096 1 1