ITEM: TIMESTEP
100
ITEM: NUMBER OF ATOMS
2953
ITEM: BOX BOUNDS pp pp mm
0.0000000000000000e+00 2.1394294200000001e+01
0.0000000000000000e+00 2.1394294200000001e+01
-4.4571446250000002e-01 5.3485735500000004e+01
ITEM: ATOMS id type x y z vx vy vz v_is_diamond c_structure_type
1 1 0 0 0 0 0 0 1 3
2 1 0.0457483 1.7914 1.77532 -6.41775 2.78832 -1.61388 1 1
3 1 1.79877 0.0268916 1.79677 0.162916 -1.20712 5.22993 1 1
4 1 1.78286 1.78286 0 0 0 0 1 3
5 1 0.891429 0.891429 0.891429 0 0 0 1 2
6 1 0.901652 2.72337 2.62721 1.53458 -0.783946 0.557982 1 1
7 1 2.63409 0.963504 2.66276 2.61226 2.62619 -3.99274 1 1
8 1 2.67429 2.67429 0.891429 0 0 0 1 2
9 1 3.56572 0 0 0 0 0 1 3
10 1 3.57049 1.8114 1.76864 1.1328 3.35492 -0.374292 1 1
11 1 5.29066 0.0107497 1.8467 -0.764565 7.68324 4.20555 1 1
12 1 5.34857 1.78286 0 0 0 0 1 3
13 1 4.45714 0.891429 0.891429 0 0 0 1 2
14 1 4.46072 2.65897 2.77009 -0.577041 -6.44714 -6.71757 1 1
15 1 6.20524 0.918822 2.66867 -3.18205 5.52156 -0.201856 1 1
16 1 6.24 2.67429 0.891429 0 0 0 1 2
17 1 7.13143 0 0 0 0 0 1 3
18 1 7.09694 1.77586 1.76044 -7.71003 3.89328 4.72695 1 1
19 1 8.91014 0.0172365 1.73959 -2.67498 -7.17744 -0.103455 1 1
20 1 8.91429 1.78286 0 0 0 0 1 3
21 1 8.02286 0.891429 0.891429 0 0 0 1 2
22 1 7.9641 2.66283 2.65802 0.106416 -0.439219 0.469368 1 1
23 1 9.76325 0.876036 2.6463 2.07617 -0.303782 -0.687585 1 1
24 1 9.80572 2.67429 0.891429 0 0 0 1 2
25 1 10.6971 0 0 0 0 0 1 3
26 1 10.6951 1.76154 1.76457 0.787806 2.24501 0.413822 1 1
27 1 12.4545 21.3919 1.82679 2.12858 -0.878727 -1.88062 1 1
28 1 12.48 1.78286 0 0 0 0 1 3
29 1 11.5886 0.891429 0.891429 0 0 0 1 2
30 1 11.5494 2.65305 2.65957 1.45577 7.12874 -0.476472 1 1
31 1 13.376 0.857583 2.72304 11.1687 0.128111 5.87967 1 1
32 1 13.3714 2.67429 0.891429 0 0 0 1 2
33 1 14.2629 0 0 0 0 0 1 3
34 1 14.2295 1.77819 1.82651 -3.14198 -6.69406 -2.83016 1 1
35 1 16.0437 0.0150926 1.81078 -0.152155 -2.9539 5.96554 1 1
36 1 16.0457 1.78286 0 0 0 0 1 3
37 1 15.1543 0.891429 0.891429 0 0 0 1 2
38 1 15.1643 2.66196 2.70142 -2.41645 0.739206 -1.14936 1 1
39 1 16.9328 0.876832 2.65787 -1.39163 3.58991 4.58799 1 1
40 1 16.9371 2.67429 0.891429 0 0 0 1 2
41 1 17.8286 0 0 0 0 0 1 3
42 1 17.8059 1.76132 1.7518 -2.21858 -0.199497 -1.64171 1 1
43 1 19.6 0.0442721 1.74442 8.05453 0.411969 11.2588 1 1
44 1 19.6114 1.78286 0 0 0 0 1 3
45 1 18.72 0.891429 0.891429 0 0 0 1 2
46 1 18.7342 2.66969 2.6691 1.46398 2.91074 0.479843 1 1
47 1 20.5282 0.91939 2.65273 -5.53793 9.34293 -3.25637 1 1
48 1 20.5029 2.67429 0.891429 0 0 0 1 2
49 1 0 3.56572 0 0 0 0 1 3
50 1 0.0152172 5.36529 1.78032 2.24578 2.23816 -2.60486 1 1
51 1 1.83108 3.59646 1.78583 -4.70405 -0.106311 -1.19184 1 1
52 1 1.78286 5.34857 0 0 0 0 1 3
53 1 0.891429 4.45714 0.891429 0 0 0 1 2
54 1 0.917105 6.24857 2.70296 1.50209 -1.58149 3.8582 1 1
55 1 2.72097 4.4622 2.69587 -8.79977 2.48619 4.55073 1 1
56 1 2.67429 6.24 0.891429 0 0 0 1 2
57 1 3.56572 3.56572 0 0 0 0 1 3
58 1 3.58342 5.35866 1.78732 -1.25636 -7.9225 -0.889502 1 1
59 1 5.32691 3.57222 1.79929 -1.56299 0.216352 0.263117 1 1
60 1 5.34857 5.34857 0 0 0 0 1 3
61 1 4.45714 4.45714 0.891429 0 0 0 1 2
62 1 4.47171 6.24605 2.68949 5.84721 -0.688261 -5.3054 1 1
63 1 6.2351 4.47096 2.69616 4.93917 0.600227 0.767758 1 1
64 1 6.24 6.24 0.891429 0 0 0 1 2
65 1 7.13143 3.56572 0 0 0 0 1 3
66 1 7.11721 5.37096 1.76246 -0.672762 -4.13298 1.33363 1 1
67 1 8.93119 3.59074 1.81474 -1.1797 -1.26686 8.4366 1 1
68 1 8.91429 5.34857 0 0 0 0 1 3
69 1 8.02286 4.45714 0.891429 0 0 0 1 2
70 1 8.02073 6.22083 2.68014 0.825363 3.83057 3.08239 1 1
71 1 9.81592 4.45631 2.70235 -0.582567 -0.366504 -0.898276 1 1
72 1 9.80572 6.24 0.891429 0 0 0 1 2
73 1 10.6971 3.56572 0 0 0 0 1 3
74 1 10.6948 5.3362 1.82433 7.37154 -3.49639 2.79221 1 1
75 1 12.4571 3.54765 1.77892 5.29886 3.00629 1.08969 1 1
76 1 12.48 5.34857 0 0 0 0 1 3
77 1 11.5886 4.45714 0.891429 0 0 0 1 2
78 1 11.5637 6.25675 2.69551 -4.06699 11.7245 8.5351 1 1
79 1 13.3667 4.4538 2.65421 3.08207 -3.53658 7.21329 1 1
80 1 13.3714 6.24 0.891429 0 0 0 1 2
81 1 14.2629 3.56572 0 0 0 0 1 3
82 1 14.279 5.34622 1.76291 0.0832237 5.91491 0.181095 1 1
83 1 16.0397 3.52671 1.78519 -5.57182 -0.455411 5.30821 1 1
84 1 16.0457 5.34857 0 0 0 0 1 3
85 1 15.1543 4.45714 0.891429 0 0 0 1 2
86 1 15.1873 6.20042 2.69544 3.25654 -0.377327 -6.60377 1 1
87 1 16.9354 4.42773 2.65739 7.39909 -7.10497 0.0296323 1 1
88 1 16.9371 6.24 0.891429 0 0 0 1 2
89 1 17.8286 3.56572 0 0 0 0 1 3
90 1 17.8275 5.35856 1.78263 -8.91726 -0.725909 -0.21646 1 1
91 1 19.616 3.55109 1.78329 -3.85817 -1.39319 -9.00272 1 1
92 1 19.6114 5.34857 0 0 0 0 1 3
93 1 18.72 4.45714 0.891429 0 0 0 1 2
94 1 18.7844 6.20855 2.62767 -7.92619 2.94132 2.7473 1 1
95 1 20.5379 4.41909 2.70046 -1.95342 -0.985404 9.09335 1 1
96 1 20.5029 6.24 0.891429 0 0 0 1 2
97 1 0 7.13143 0 0 0 0 1 3
98 1 0.0332713 8.88585 1.75869 6.36025 0.780745 1.40856 1 1
99 1 1.80151 7.10757 1.78923 -2.24394 -0.500487 -0.258731 1 1
100 1 1.78286 8.91429 0 0 0 0 1 3
101 1 0.891429 8.02286 0.891429 0 0 0 1 2
102 1 0.895854 9.79737 2.65425 -1.21749 -1.27751 8.55412 1 1
103 1 2.69029 7.96295 2.68766 6.46482 8.32623 -9.9485 1 1
104 1 2.67429 9.80572 0.891429 0 0 0 1 2
105 1 3.56572 7.13143 0 0 0 0 1 3
106 1 3.56283 8.86202 1.79124 -3.47752 -3.13644 -8.30741 1 1
107 1 5.36081 7.11437 1.82308 5.43065 -1.95002 0.776629 1 1
108 1 5.34857 8.91429 0 0 0 0 1 3
109 1 4.45714 8.02286 0.891429 0 0 0 1 2
110 1 4.46592 9.7867 2.71019 -1.23083 -2.70044 -9.09493 1 1
111 1 6.27124 8.02984 2.6859 2.35313 2.41726 4.46554 1 1
112 1 6.24 9.80572 0.891429 0 0 0 1 2
113 1 7.13143 7.13143 0 0 0 0 1 3
114 1 7.15733 8.89534 1.81697 -2.56206 -9.88325 -6.39409 1 1
115 1 8.91091 7.11514 1.77645 -2.97728 1.63863 5.96443 1 1
116 1 8.91429 8.91429 0 0 0 0 1 3
117 1 8.02286 8.02286 0.891429 0 0 0 1 2
118 1 8.04249 9.81535 2.70215 6.26388 1.271 -2.94591 1 1
119 1 9.75062 8.00674 2.66731 -2.76931 -2.22851 0.44394 1 1
120 1 9.80572 9.80572 0.891429 0 0 0 1 2
121 1 10.6971 7.13143 0 0 0 0 1 3
122 1 10.6445 8.91356 1.78891 0.10929 -2.03543 3.58185 1 1
123 1 12.4862 7.12708 1.83959 -1.11741 -6.08226 -2.67636 1 1
124 1 12.48 8.91429 0 0 0 0 1 3
125 1 11.5886 8.02286 0.891429 0 0 0 1 2
126 1 11.5574 9.83162 2.69223 3.89486 -4.7715 12.3232 1 1
127 1 13.404 7.99245 2.69627 -3.15747 1.59457 3.1281 1 1
128 1 13.3714 9.80572 0.891429 0 0 0 1 2
129 1 14.2629 7.13143 0 0 0 0 1 3
130 1 14.2921 8.89604 1.76087 -1.62741 0.401361 2.64118 1 1
131 1 16.0876 7.12193 1.77666 -1.88751 1.04227 0.52701 1 1
132 1 16.0457 8.91429 0 0 0 0 1 3
133 1 15.1543 8.02286 0.891429 0 0 0 1 2
134 1 15.1331 9.78526 2.66722 0.612084 -2.01263 6.661 1 1
135 1 16.9894 8.00551 2.66514 -3.52961 5.86353 7.88242 1 1
136 1 16.9371 9.80572 0.891429 0 0 0 1 2
137 1 17.8286 7.13143 0 0 0 0 1 3
138 1 17.8498 8.93775 1.78311 -3.66872 1.03258 8.31074 1 1
139 1 19.6438 7.13375 1.79028 -9.0145 2.71186 2.2569 1 1
140 1 19.6114 8.91429 0 0 0 0 1 3
141 1 18.72 8.02286 0.891429 0 0 0 1 2
142 1 18.7038 9.75815 2.6954 6.70686 -7.71406 0.604954 1 1
143 1 20.494 8.0144 2.69807 -4.963 3.8474 0.220128 1 1
144 1 20.5029 9.80572 0.891429 0 0 0 1 2
145 1 0 10.6971 0 0 0 0 1 3
146 1 0.0172396 12.51 1.8016 -2.63269 4.13098 11.2051 1 1
147 1 1.77789 10.7158 1.8028 -0.989725 3.68804 -0.130985 1 1
148 1 1.78286 12.48 0 0 0 0 1 3
149 1 0.891429 11.5886 0.891429 0 0 0 1 2
150 1 0.890011 13.3826 2.72075 -0.66554 3.4877 3.50591 1 1
151 1 2.63564 11.5919 2.6789 1.04098 -2.59806 -1.64207 1 1
152 1 2.67429 13.3714 0.891429 0 0 0 1 2
153 1 3.56572 10.6971 0 0 0 0 1 3
154 1 3.52971 12.5319 1.76607 -3.34634 -1.16558 9.13999 1 1
155 1 5.36745 10.6614 1.7858 -6.70386 1.01725 1.93489 1 1
156 1 5.34857 12.48 0 0 0 0 1 3
157 1 4.45714 11.5886 0.891429 0 0 0 1 2
158 1 4.46165 13.4074 2.68325 -0.196296 16.3409 4.61484 1 1
159 1 6.21594 11.5552 2.57852 6.48378 10.6372 -4.7639 1 1
160 1 6.24 13.3714 0.891429 0 0 0 1 2
161 1 7.13143 10.6971 0 0 0 0 1 3
162 1 7.10207 12.4814 1.75475 -2.69395 -6.70978 -7.90307 1 1
163 1 8.95038 10.6958 1.78327 1.341 0.38184 1.60192 1 1
164 1 8.91429 12.48 0 0 0 0 1 3
165 1 8.02286 11.5886 0.891429 0 0 0 1 2
166 1 7.9967 13.3423 2.67044 3.41366 3.36607 -0.710007 1 1
167 1 9.83276 11.5593 2.65235 -0.985824 -3.87422 1.75735 1 1
168 1 9.80572 13.3714 0.891429 0 0 0 1 2
169 1 10.6971 10.6971 0 0 0 0 1 3
170 1 10.6458 12.4828 1.75629 1.56266 0.193662 -12.4267 1 1
171 1 12.4546 10.6693 1.78851 -3.06886 3.73968 -1.73624 1 1
172 1 12.48 12.48 0 0 0 0 1 3
173 1 11.5886 11.5886 0.891429 0 0 0 1 2
174 1 11.6249 13.3728 2.62415 -0.929568 -0.263093 1.89065 1 1
175 1 13.3832 11.5536 2.66858 -0.767337 0.171474 -1.32485 1 1
176 1 13.3714 13.3714 0.891429 0 0 0 1 2
177 1 14.2629 10.6971 0 0 0 0 1 3
178 1 14.2825 12.4326 1.76993 -0.552142 4.64605 -1.44412 1 1
179 1 16.0409 10.6851 1.78526 8.33129 -1.62372 -3.49063 1 1
180 1 16.0457 12.48 0 0 0 0 1 3
181 1 15.1543 11.5886 0.891429 0 0 0 1 2
182 1 15.1725 13.3724 2.67898 -2.21998 -1.99246 -7.48156 1 1
183 1 16.9894 11.6086 2.68324 5.66279 -2.93857 4.30643 1 1
184 1 16.9371 13.3714 0.891429 0 0 0 1 2
185 1 17.8286 10.6971 0 0 0 0 1 3
186 1 17.8124 12.4793 1.78195 -1.54954 0.345109 2.31581 1 1
187 1 19.6459 10.7072 1.78979 3.70094 1.37192 -2.11004 1 1
188 1 19.6114 12.48 0 0 0 0 1 3
189 1 18.72 11.5886 0.891429 0 0 0 1 2
190 1 18.7319 13.3799 2.64563 -0.259615 -4.77671 9.83548 1 1
191 1 20.4846 11.6423 2.69278 0.465823 3.6138 2.76253 1 1
192 1 20.5029 13.3714 0.891429 0 0 0 1 2
193 1 0 14.2629 0 0 0 0 1 3
194 1 0.0145452 16.0372 1.76444 -1.88408 8.89682 -9.44596 1 1
195 1 1.81215 14.2576 1.78107 2.3854 -3.74637 3.65947 1 1
196 1 1.78286 16.0457 0 0 0 0 1 3
197 1 0.891429 15.1543 0.891429 0 0 0 1 2
198 1 0.839812 16.9234 2.66317 3.33825 3.54545 -8.55686 1 1
199 1 2.68499 15.1616 2.65767 -4.38569 2.22725 0.679297 1 1
200 1 2.67429 16.9371 0.891429 0 0 0 1 2
201 1 3.56572 14.2629 0 0 0 0 1 3
202 1 3.60762 16.0945 1.78038 8.20064 -9.96074 2.06341 1 1
203 1 5.38342 14.2493 1.79898 10.1085 1.66836 2.86597 1 1
204 1 5.34857 16.0457 0 0 0 0 1 3
205 1 4.45714 15.1543 0.891429 0 0 0 1 2
206 1 4.48686 16.9696 2.70563 -0.722539 1.4524 -3.12028 1 1
207 1 6.2701 15.1708 2.65774 -3.36565 -4.0876 -1.77127 1 1
208 1 6.24 16.9371 0.891429 0 0 0 1 2
209 1 7.13143 14.2629 0 0 0 0 1 3
210 1 7.14493 16.0546 1.7578 -0.0387094 0.931375 -7.59648 1 1
211 1 8.88532 14.2698 1.76558 4.35814 -1.65921 0.229985 1 1
212 1 8.91429 16.0457 0 0 0 0 1 3
213 1 8.02286 15.1543 0.891429 0 0 0 1 2
214 1 8.0357 16.9685 2.69032 1.31023 4.01441 -13.1023 1 1
215 1 9.78023 15.15 2.6908 -1.6475 -1.21372 -5.20612 1 1
216 1 9.80572 16.9371 0.891429 0 0 0 1 2
217 1 10.6971 14.2629 0 0 0 0 1 3
218 1 10.7081 16.0539 1.78246 -1.34334 1.1461 7.03782 1 1
219 1 12.5067 14.2645 1.71204 -2.60545 5.9696 4.38358 1 1
220 1 12.48 16.0457 0 0 0 0 1 3
221 1 11.5886 15.1543 0.891429 0 0 0 1 2
222 1 11.5968 16.9967 2.67524 2.68736 2.88585 -5.09394 1 1
223 1 13.3807 15.1158 2.61443 1.53275 -1.06056 4.24073 1 1
224 1 13.3714 16.9371 0.891429 0 0 0 1 2
225 1 14.2629 14.2629 0 0 0 0 1 3
226 1 14.2585 16.0284 1.7691 -3.4711 7.08298 -3.75808 1 1
227 1 16.048 14.2488 1.75329 -2.71749 -9.86804 4.6419 1 1
228 1 16.0457 16.0457 0 0 0 0 1 3
229 1 15.1543 15.1543 0.891429 0 0 0 1 2
230 1 15.1517 16.9397 2.68586 2.02018 -6.64566 4.19425 1 1
231 1 16.9292 15.1718 2.69822 2.3901 12.6802 0.359092 1 1
232 1 16.9371 16.9371 0.891429 0 0 0 1 2
233 1 17.8286 14.2629 0 0 0 0 1 3
234 1 17.8243 16.0807 1.78239 -7.10891 1.18119 -2.38312 1 1
235 1 19.6141 14.2988 1.7473 1.76205 8.145 1.91165 1 1
236 1 19.6114 16.0457 0 0 0 0 1 3
237 1 18.72 15.1543 0.891429 0 0 0 1 2
238 1 18.6959 16.9616 2.66442 1.87216 -0.0313696 -3.53505 1 1
239 1 20.5579 15.164 2.67129 3.19415 -1.56395 -1.69553 1 1
240 1 20.5029 16.9371 0.891429 0 0 0 1 2
241 1 0 17.8286 0 0 0 0 1 3
242 1 0.024987 19.5936 1.78341 5.23685 3.43463 -7.50569 1 1
243 1 1.77104 17.8585 1.7708 1.23343 -3.80769 8.438 1 1
244 1 1.78286 19.6114 0 0 0 0 1 3
245 1 0.891429 18.72 0.891429 0 0 0 1 2
246 1 0.873131 20.5378 2.70278 -2.13853 4.30536 6.2678 1 1
247 1 2.67407 18.755 2.68373 2.33909 4.09047 1.43454 1 1
248 1 2.67429 20.5029 0.891429 0 0 0 1 2
249 1 3.56572 17.8286 0 0 0 0 1 3
250 1 3.54868 19.6145 1.76109 -2.90204 -0.522418 -11.8761 1 1
251 1 5.35378 17.8397 1.78923 0.593568 4.922 1.67937 1 1
252 1 5.34857 19.6114 0 0 0 0 1 3
253 1 4.45714 18.72 0.891429 0 0 0 1 2
254 1 4.46992 20.5063 2.69085 -7.00085 6.60611 -0.641438 1 1
255 1 6.2606 18.734 2.6632 3.90186 -6.64545 -2.42931 1 1
256 1 6.24 20.5029 0.891429 0 0 0 1 2
257 1 7.13143 17.8286 0 0 0 0 1 3
258 1 7.11289 19.6115 1.78097 -2.28833 -7.08336 1.54887 1 1
259 1 8.90674 17.8691 1.82571 -8.20471 1.00757 0.561128 1 1
260 1 8.91429 19.6114 0 0 0 0 1 3
261 1 8.02286 18.72 0.891429 0 0 0 1 2
262 1 8.08178 20.5009 2.65185 -0.280973 0.27474 6.06971 1 1
263 1 9.80593 18.7486 2.73207 0.520494 -0.21099 -6.87576 1 1
264 1 9.80572 20.5029 0.891429 0 0 0 1 2
265 1 10.6971 17.8286 0 0 0 0 1 3
266 1 10.6744 19.6638 1.80169 8.43769 -3.40871 -0.0320743 1 1
267 1 12.4532 17.8893 1.77653 5.18555 5.64668 -0.497405 1 1
268 1 12.48 19.6114 0 0 0 0 1 3
269 1 11.5886 18.72 0.891429 0 0 0 1 2
270 1 11.581 20.5161 2.69686 -0.634164 -0.209004 6.4168 1 1
271 1 13.3825 18.7557 2.67664 -0.738277 -0.390351 2.76965 1 1
272 1 13.3714 20.5029 0.891429 0 0 0 1 2
273 1 14.2629 17.8286 0 0 0 0 1 3
274 1 14.2609 19.6099 1.77773 -0.195356 -7.80462 4.03677 1 1
275 1 16.0705 17.8228 1.77387 1.25977 -2.21351 3.30584 1 1
276 1 16.0457 19.6114 0 0 0 0 1 3
277 1 15.1543 18.72 0.891429 0 0 0 1 2
278 1 15.1642 20.5188 2.66957 9.32006 1.55351 2.83119 1 1
279 1 16.9686 18.6983 2.66231 9.751 -1.89189 3.76942 1 1
280 1 16.9371 20.5029 0.891429 0 0 0 1 2
281 1 17.8286 17.8286 0 0 0 0 1 3
282 1 17.8421 19.6081 1.78724 -0.713715 0.0961134 1.00971 1 1
283 1 19.6153 17.8227 1.77206 -1.69628 9.06846 -4.80047 1 1
284 1 19.6114 19.6114 0 0 0 0 1 3
285 1 18.72 18.72 0.891429 0 0 0 1 2
286 1 18.7214 20.5177 2.66214 -4.30365 8.25876 1.10913 1 1
287 1 20.5231 18.7576 2.6669 2.57973 -1.4002 0.394923 1 1
288 1 20.5029 20.5029 0.891429 0 0 0 1 2
289 1 21.3906 0.0627984 3.54737 11.6429 -2.64019 6.64806 1 1
290 1 21.3717 1.80223 5.36555 -3.94601 1.01416 -0.100508 1 1
291 1 1.72153 0.0591728 5.38433 1.87644 1.2171 0.425966 1 1
292 1 1.79767 1.784 3.5991 0.558112 -8.42183 1.31612 1 1
293 1 0.901096 0.902692 4.46838 4.85786 5.36781 4.55564 1 1
294 1 0.886121 2.66692 6.32978 1.51987 0.682163 3.39335 1 1
295 1 2.69184 0.848436 6.27976 -5.58995 -1.90549 0.982001 1 1
296 1 2.68863 2.6907 4.50479 9.0403 2.85587 -1.75673 1 1
297 1 3.56535 0.0335478 3.59013 -8.8385 3.69203 -4.05518 1 1
298 1 3.51991 1.75613 5.40814 -2.77848 0.22801 7.35674 1 1
299 1 5.34768 21.3694 5.41658 -10.7665 -6.49355 0.394337 1 1
300 1 5.30509 1.78928 3.6013 -1.77629 8.82853 1.0439 1 1
301 1 4.43108 0.855136 4.44127 4.89764 -5.08016 -5.0867 1 1
302 1 4.44047 2.70638 6.27017 -11.2232 -0.458095 6.24753 1 1
303 1 6.19834 0.883303 6.27536 1.27382 -2.26116 1.02568 1 1
304 1 6.22127 2.66782 4.47452 7.01055 -7.30749 3.14234 1 1
305 1 7.10757 0.00879886 3.5777 1.65704 -1.69964 4.42254 1 1
306 1 7.14297 1.77545 5.36942 -0.922326 2.55097 6.31754 1 1
307 1 8.90551 0.0174663 5.3846 -4.4754 2.43499 6.4419 1 1
308 1 8.85537 1.73858 3.52672 6.17817 -1.31576 4.37621 1 1
309 1 7.97212 0.893752 4.44061 -3.6854 -1.50618 -7.43863 1 1
310 1 8.01991 2.66688 6.27528 7.8659 0.0466324 1.01214 1 1
311 1 9.78802 0.887457 6.29905 0.124175 -10.6001 7.27842 1 1
312 1 9.79862 2.66433 4.42973 4.60399 3.14508 0.157767 1 1
313 1 10.6581 0.014117 3.56473 -1.79363 3.94549 0.618396 1 1
314 1 10.6482 1.78433 5.36383 -6.95372 5.93999 -4.76811 1 1
315 1 12.4814 21.3722 5.31405 -6.36389 -2.80093 1.2324 1 1
316 1 12.4775 1.76728 3.58731 -3.37408 1.76648 -4.50459 1 1
317 1 11.5458 0.870885 4.45388 -5.70134 -2.58239 -2.7425 1 1
318 1 11.5371 2.65984 6.28753 7.09963 1.04882 5.0183 1 1
319 1 13.3346 0.880675 6.23521 -0.683027 6.08193 1.21372 1 1
320 1 13.3273 2.64527 4.49819 8.07125 -2.90278 -6.08921 1 1
321 1 14.2642 0.00459428 3.59862 -5.65139 3.44176 -6.53359 1 1
322 1 14.2261 1.77109 5.39135 5.17742 -3.46861 2.76177 1 1
323 1 16.0408 21.3498 5.34959 -1.32261 2.17088 -4.29726 1 1
324 1 16.068 1.73358 3.57012 5.85126 1.213 -5.93287 1 1
325 1 15.1559 0.862976 4.47762 6.03482 7.77089 -2.66561 1 1
326 1 15.157 2.66579 6.28251 -0.81775 3.83311 -3.14683 1 1
327 1 16.8899 0.852609 6.23878 -1.13778 -0.23296 1.95695 1 1
328 1 16.975 2.61188 4.47938 -7.63582 4.93951 -1.93397 1 1
329 1 17.8445 21.3772 3.57295 4.51975 -0.251533 -4.8177 1 1
330 1 17.8126 1.76686 5.40581 7.56715 -3.78388 2.04471 1 1
331 1 19.6075 21.363 5.41376 -1.29809 1.17507 -1.58055 1 1
332 1 19.6098 1.78988 3.59531 -2.39 0.994304 0.077878 1 1
333 1 18.7517 0.87239 4.44117 2.41042 6.06923 6.47695 1 1
334 1 18.6628 2.62396 6.27216 -3.46672 2.88938 -0.398511 1 1
335 1 20.5108 0.892222 6.27464 -0.81973 0.827081 -5.10298 1 1
336 1 20.5017 2.65409 4.42834 -2.96584 -3.1087 3.33375 1 1
337 1 21.3772 3.54493 3.56885 2.40124 2.49674 4.95158 1 1
338 1 0.0240313 5.31065 5.39524 9.27766 5.42177 0.561708 1 1
339 1 1.76812 3.55785 5.40256 0.114511 -0.628148 -2.6788 1 1
340 1 1.81943 5.38381 3.60769 -1.63785 0.228694 -2.14093 1 1
341 1 0.885966 4.43166 4.49403 3.07141 -5.30173 -2.00696 1 1
342 1 0.921092 6.26381 6.2242 0.990596 -2.19474 -2.48591 1 1
343 1 2.698 4.47051 6.28286 -0.577555 -2.13839 0.837007 1 1
344 1 2.68869 6.2498 4.4678 6.13168 9.86248 -2.00338 1 1
345 1 3.56715 3.58806 3.69295 1.95865 -1.74124 0.940618 1 1
346 1 3.59085 5.38373 5.3957 11.5918 2.57531 4.25633 1 1
347 1 5.36988 3.53862 5.40107 -5.32451 -0.324816 -1.02175 1 1
348 1 5.33113 5.33588 3.59775 -0.361464 -3.56748 -3.69835 1 1
349 1 4.48235 4.45516 4.53823 2.82686 0.613475 3.43132 1 1
350 1 4.48455 6.23241 6.29964 -1.87416 6.44397 2.42833 1 1
351 1 6.27713 4.45572 6.29567 2.15969 6.97479 -4.48321 1 1
352 1 6.26099 6.23286 4.47578 5.69031 -7.6028 1.30256 1 1
353 1 7.10234 3.56466 3.58881 -1.50392 4.21734 5.69606 1 1
354 1 7.10668 5.33171 5.37478 -0.57997 5.60053 -1.95359 1 1
355 1 8.93162 3.5419 5.35861 1.26632 2.13991 4.25377 1 1
356 1 8.92604 5.35232 3.52675 -11.3039 3.84451 6.85736 1 1
357 1 8.0671 4.44779 4.45028 5.24605 6.43537 2.2868 1 1
358 1 8.02766 6.21409 6.26573 4.80395 -1.34899 6.14221 1 1
359 1 9.77695 4.46511 6.27007 3.25092 -0.73059 10.6059 1 1
360 1 9.78344 6.23442 4.48692 4.25349 -1.07405 1.07503 1 1
361 1 10.6875 3.57197 3.58912 14.1975 0.441308 2.20497 1 1
362 1 10.6249 5.33501 5.36297 -1.4675 6.28297 0.150978 1 1
363 1 12.4638 3.55448 5.40654 -3.72048 -3.83169 4.73324 1 1
364 1 12.4559 5.29666 3.56361 -2.48429 11.3415 -4.35361 1 1
365 1 11.5699 4.43909 4.51911 -1.23958 -2.84289 3.1314 1 1
366 1 11.58 6.20563 6.27393 -7.37305 -2.51225 -1.64831 1 1
367 1 13.3612 4.45423 6.27307 3.49449 1.59972 0.947949 1 1
368 1 13.3586 6.26382 4.46474 0.376706 5.27081 8.52615 1 1
369 1 14.2394 3.56002 3.60375 -12.6209 0.0785087 -2.1371 1 1
370 1 14.2876 5.37275 5.41055 -6.42176 -1.68324 -2.53641 1 1
371 1 16.0442 3.54651 5.41206 1.67452 5.98727 6.64064 1 1
372 1 16.0427 5.30992 3.59143 -11.268 2.10383 1.73623 1 1
373 1 15.1807 4.44496 4.5043 0.855254 -7.21663 2.79771 1 1
374 1 15.1391 6.26989 6.32306 0.378718 4.10071 6.58083 1 1
375 1 16.9551 4.44733 6.29498 -3.43496 2.34881 7.50579 1 1
376 1 16.9182 6.18028 4.45706 2.39417 -2.53642 2.46578 1 1
377 1 17.8473 3.54258 3.63201 -2.89082 0.468657 -7.07936 1 1
378 1 17.8316 5.35799 5.34503 -3.25309 6.5189 0.162999 1 1
379 1 19.6122 3.55038 5.34641 -4.33332 -7.52874 -6.51774 1 1
380 1 19.6778 5.31907 3.55577 7.42586 5.93081 3.47025 1 1
381 1 18.7226 4.4575 4.49458 3.5904 1.2848 -2.57711 1 1
382 1 18.7126 6.23637 6.22373 -1.86386 -3.81322 -3.35285 1 1
383 1 20.5003 4.42381 6.30486 1.06518 -3.7226 7.57661 1 1
384 1 20.4986 6.20816 4.46218 5.17939 -1.80007 -0.599658 1 1
385 1 0.00902978 7.11249 3.55693 8.90887 5.64794 7.65403 1 1
386 1 21.3504 8.93431 5.36513 -2.53485 0.658604 4.55236 1 1
387 1 1.79462 7.13717 5.35728 -0.418171 -5.30681 -1.5213 1 1
388 1 1.76907 8.89627 3.54788 8.28058 2.78573 5.18346 1 1
389 1 0.866173 8.01463 4.47458 4.48357 5.29349 0.553694 1 1
390 1 0.888967 9.82172 6.28982 -1.28471 -7.15069 -1.53833 1 1
391 1 2.68479 8.00387 6.27161 7.07335 1.82428 0.314884 1 1
392 1 2.66428 9.82457 4.46562 -4.35935 -2.71737 0.986411 1 1
393 1 3.55683 7.11432 3.53153 3.63979 7.35598 7.46418 1 1
394 1 3.58425 8.90778 5.37696 -1.26759 8.2525 4.66884 1 1
395 1 5.32027 7.13616 5.36114 0.0657548 4.32197 0.00271635 1 1
396 1 5.34343 8.91823 3.58287 1.56488 0.908254 -2.21598 1 1
397 1 4.46737 8.04336 4.44628 6.56897 -3.15365 -1.85318 1 1
398 1 4.46127 9.7728 6.27136 9.37791 -3.06193 -5.45017 1 1
399 1 6.2339 8.01825 6.25132 -0.624953 1.911 -0.611643 1 1
400 1 6.21257 9.75042 4.45293 6.73782 3.12407 -4.32661 1 1
401 1 7.14069 7.10839 3.62206 2.56737 -6.17033 -2.83175 1 1
402 1 7.18306 8.89601 5.35654 -2.77835 -1.81595 3.11017 1 1
403 1 8.89968 7.12703 5.39916 -6.72096 0.0970111 -11.2663 1 1
404 1 8.91604 8.91588 3.55796 -0.0451552 2.93481 3.83102 1 1
405 1 8.03392 8.02126 4.473 -0.899995 4.84603 2.47882 1 1
406 1 8.02001 9.78224 6.22838 4.46269 4.78617 2.17797 1 1
407 1 9.79143 8.01599 6.31062 -0.381605 -1.87687 -5.99251 1 1
408 1 9.81978 9.81724 4.45038 2.22319 -0.401301 7.08033 1 1
409 1 10.5993 7.14891 3.56979 2.91357 5.829 3.26922 1 1
410 1 10.6991 8.906 5.3537 4.38632 -6.26948 0.754254 1 1
411 1 12.4894 7.13349 5.35952 0.523847 4.09353 2.49391 1 1
412 1 12.4754 8.87665 3.58113 3.31766 9.02043 -3.41146 1 1
413 1 11.5481 8.01234 4.45543 -0.122844 1.69515 -2.62415 1 1
414 1 11.5669 9.7804 6.28057 -3.34567 3.29494 -1.2007 1 1
415 1 13.3813 7.98553 6.26072 -0.811081 -3.68392 5.63695 1 1
416 1 13.3583 9.75886 4.48333 -5.42125 -3.70362 -0.170151 1 1
417 1 14.2737 7.14082 3.58622 -4.58488 -2.94544 4.25346 1 1
418 1 14.2656 8.912 5.33874 -0.942935 0.773898 0.607538 1 1
419 1 16.0369 7.16748 5.41746 -6.07062 -3.36631 3.03922 1 1
420 1 16.0209 8.93389 3.61421 -5.28775 -0.740869 5.81266 1 1
421 1 15.1741 8.02806 4.50623 2.39602 -3.69619 0.672092 1 1
422 1 15.1786 9.79899 6.25608 0.611368 3.01824 2.45827 1 1
423 1 16.9355 8.04372 6.30584 2.80424 0.355906 -5.94725 1 1
424 1 16.9479 9.80379 4.5001 6.45755 0.425078 4.97034 1 1
425 1 17.8439 7.06479 3.57663 1.95501 -12.3037 -1.17896 1 1
426 1 17.8267 8.88 5.41625 -0.226296 3.86599 -9.12015 1 1
427 1 19.6039 7.14149 5.36529 7.33394 9.75695 6.72059 1 1
428 1 19.5838 8.93018 3.54756 -3.76204 3.80487 -4.53931 1 1
429 1 18.7045 8.03187 4.4737 -2.36202 -6.23803 4.87497 1 1
430 1 18.6956 9.83888 6.29114 -0.782773 -2.2995 -1.06831 1 1
431 1 20.4961 8.03698 6.28699 0.0305294 -0.872109 3.577 1 1
432 1 20.4688 9.81975 4.46166 2.63405 -0.915039 1.4446 1 1
433 1 21.3933 10.7269 3.58646 1.8515 -0.199238 -4.9831 1 1
434 1 21.3878 12.4395 5.38271 0.530253 -1.99263 -4.8059 1 1
435 1 1.75622 10.7055 5.38513 5.26026 2.18427 -8.59386 1 1
436 1 1.79041 12.5134 3.60551 -2.13129 0.650643 -0.373507 1 1
437 1 0.890626 11.6186 4.5019 -0.980113 -4.60137 -2.58382 1 1
438 1 0.890011 13.318 6.2816 -2.88757 9.90034 4.21865 1 1
439 1 2.73607 11.5584 6.27239 -4.27861 -7.35636 -9.9738 1 1
440 1 2.66855 13.3881 4.46415 3.57983 -12.7416 -3.38264 1 1
441 1 3.54707 10.669 3.54344 2.76102 1.43761 7.07942 1 1
442 1 3.60676 12.479 5.33787 13.223 -0.585653 1.92094 1 1
443 1 5.37253 10.647 5.39386 -1.11699 3.70722 -1.37783 1 1
444 1 5.36411 12.4696 3.56125 -0.72296 -4.11739 3.46117 1 1
445 1 4.45055 11.5706 4.43599 0.837377 0.79128 -0.225161 1 1
446 1 4.4592 13.3277 6.25328 -0.695827 5.03535 -1.7786 1 1
447 1 6.28215 11.5565 6.29924 9.96763 -2.46969 -0.18245 1 1
448 1 6.2469 13.375 4.45267 -1.55108 -2.97832 1.44259 1 1
449 1 7.142 10.6458 3.53569 -2.23704 4.36593 6.31812 1 1
450 1 7.13168 12.4738 5.3426 -4.65034 9.35862 -0.201501 1 1
451 1 8.89762 10.7071 5.35628 -0.939 -5.84009 -0.487446 1 1
452 1 8.92034 12.4698 3.52533 -0.214089 -2.11501 -1.09041 1 1
453 1 8.02512 11.6026 4.46264 -0.206566 -0.505018 7.10308 1 1
454 1 8.05045 13.3671 6.26655 -4.0415 -0.0395477 -1.36158 1 1
455 1 9.77455 11.6057 6.25274 0.815335 2.59594 3.97617 1 1
456 1 9.81345 13.3481 4.40553 1.9275 -4.11439 5.0133 1 1
457 1 10.7141 10.7098 3.5649 -1.12622 7.88732 3.71159 1 1
458 1 10.6831 12.4755 5.36673 1.81845 -3.24178 1.28097 1 1
459 1 12.5055 10.6705 5.38378 -0.21997 1.40068 2.90603 1 1
460 1 12.4968 12.4276 3.56014 -2.27545 -7.5251 -1.18281 1 1
461 1 11.5847 11.5489 4.50885 0.429941 6.76791 -0.716791 1 1
462 1 11.5313 13.3736 6.25966 4.09118 3.32662 -3.03947 1 1
463 1 13.3597 11.616 6.29438 -5.01361 4.37803 2.62094 1 1
464 1 13.3636 13.3298 4.46025 5.69746 -3.24913 9.01413 1 1
465 1 14.2157 10.6594 3.56325 6.62611 -2.70848 -5.93224 1 1
466 1 14.2874 12.4835 5.38435 8.42877 -1.306 4.38635 1 1
467 1 16.0962 10.6749 5.35905 0.966467 -2.48883 2.68518 1 1
468 1 16.0719 12.4824 3.57822 4.31915 5.87271 -7.30696 1 1
469 1 15.1697 11.5791 4.45164 6.68839 1.19855 -1.01861 1 1
470 1 15.1139 13.3636 6.31572 3.78223 -2.38282 -2.20409 1 1
471 1 16.9381 11.5846 6.26417 3.37199 -4.25647 0.315311 1 1
472 1 16.9344 13.3821 4.53401 -11.646 0.692951 4.00374 1 1
473 1 17.8529 10.6739 3.56106 -2.77596 3.61118 -3.80343 1 1
474 1 17.8086 12.4835 5.43335 9.06971 2.7424 2.36832 1 1
475 1 19.586 10.7365 5.37478 -0.474556 3.45099 -6.73991 1 1
476 1 19.5583 12.4782 3.54972 -2.46906 -2.29537 2.60508 1 1
477 1 18.6947 11.631 4.46235 -2.63215 6.54353 7.44487 1 1
478 1 18.7039 13.4143 6.29391 3.39179 -4.31588 0.209046 1 1
479 1 20.4904 11.6287 6.29415 -5.50543 -7.38507 -2.96076 1 1
480 1 20.4535 13.3699 4.47003 -6.68142 -2.66671 1.09139 1 1
481 1 21.3665 14.2716 3.58268 2.99036 4.60377 -1.72647 1 1
482 1 0.0189506 16.0268 5.38437 -0.487203 -6.11876 6.58665 1 1
483 1 1.82642 14.225 5.37608 3.8364 -1.65067 1.55769 1 1
484 1 1.76842 15.9971 3.59006 10.4068 6.33379 -1.31624 1 1
485 1 0.882463 15.1154 4.50114 -4.10359 -2.91455 8.69911 1 1
486 1 0.930933 16.9167 6.26692 2.21111 1.46096 5.11639 1 1
487 1 2.67693 15.1472 6.26109 7.1335 1.67833 4.72671 1 1
488 1 2.66247 16.9528 4.48012 -6.12273 0.923506 0.584075 1 1
489 1 3.56045 14.264 3.56107 -1.83997 1.70138 -5.09204 1 1
490 1 3.54189 16.0344 5.37701 6.64099 4.48692 1.07976 1 1
491 1 5.33074 14.2363 5.3564 1.16433 10.2494 5.20361 1 1
492 1 5.40204 16.0014 3.55239 -5.63969 -1.29457 -11.7863 1 1
493 1 4.47968 15.1345 4.46088 -1.54481 4.12421 1.9615 1 1
494 1 4.44939 16.9001 6.24268 -1.37079 0.345604 -0.93341 1 1
495 1 6.23374 15.1024 6.23539 -3.40156 1.47059 -5.16689 1 1
496 1 6.25696 16.8765 4.46161 4.42436 7.51333 0.901923 1 1
497 1 7.16074 14.252 3.59174 4.58129 4.43113 -1.16885 1 1
498 1 7.13706 16.0017 5.35496 -1.27168 6.47322 2.27879 1 1
499 1 8.96261 14.2658 5.35726 2.93007 -3.81213 1.98122 1 1
500 1 8.92307 16.0458 3.58784 0.802484 -5.43074 -0.0256055 1 1
501 1 8.03798 15.1152 4.45235 1.41308 4.08078 -6.40038 1 1
502 1 8.05441 16.9369 6.25532 0.563613 -5.46009 -1.87889 1 1
503 1 9.7863 15.1881 6.26343 -8.19522 -2.71271 0.458751 1 1
504 1 9.83583 16.9935 4.45474 -5.64446 5.19681 -5.30703 1 1
505 1 10.7312 14.2681 3.52935 8.09421 1.96286 0.303178 1 1
506 1 10.7323 16.0556 5.39786 -2.49674 -4.38746 -4.87674 1 1
507 1 12.4596 14.2488 5.37557 4.19046 1.07516 3.84037 1 1
508 1 12.4949 16.0405 3.57765 4.94674 0.501629 -2.20611 1 1
509 1 11.5837 15.1514 4.4633 -5.07061 -2.62893 2.66214 1 1
510 1 11.6011 16.9361 6.29583 -7.49489 0.913041 4.08976 1 1
511 1 13.3589 15.1522 6.27112 -0.597707 -1.45533 0.88885 1 1
512 1 13.3629 16.9165 4.46903 6.95443 0.604132 0.891481 1 1
513 1 14.2879 14.2532 3.58669 -0.124134 0.877359 -12.4109 1 1
514 1 14.2108 15.9963 5.36984 0.001979 2.53432 0.173088 1 1
515 1 16.0263 14.2288 5.40291 2.46369 3.37913 1.25894 1 1
516 1 16.0292 16.0279 3.64622 -2.14666 8.87098 -11.0282 1 1
517 1 15.0991 15.1513 4.49667 8.50864 2.22528 -6.15539 1 1
518 1 15.1138 16.9136 6.27084 10.2058 -3.98323 10.0466 1 1
519 1 16.9172 15.1276 6.29245 -7.11348 0.64586 3.21398 1 1
520 1 16.961 16.8806 4.48032 5.96095 4.09886 4.74697 1 1
521 1 17.8381 14.2393 3.5786 -2.62506 3.8389 2.0472 1 1
522 1 17.8403 16.0556 5.39176 -5.28172 -1.39312 2.19119 1 1
523 1 19.6174 14.3069 5.44155 1.71191 -6.35116 4.37554 1 1
524 1 19.6078 16.0615 3.55717 13.5289 2.98078 5.325 1 1
525 1 18.7284 15.1659 4.48663 -3.69671 -2.99701 2.3643 1 1
526 1 18.7277 16.9833 6.29581 -2.60175 -2.7482 -1.04239 1 1
527 1 20.5164 15.1862 6.31532 -6.19829 3.13928 8.77644 1 1
528 1 20.5141 16.9393 4.46 0.941459 11.0548 2.71865 1 1
529 1 0.0227811 17.8549 3.55565 8.6031 -1.3616 2.12141 1 1
530 1 21.329 19.6084 5.37329 7.7178 4.86408 -7.13608 1 1
531 1 1.78807 17.8833 5.39456 2.93417 -5.50706 2.94397 1 1
532 1 1.79288 19.6319 3.57356 7.23496 -3.12304 -0.235973 1 1
533 1 0.913248 18.7455 4.4841 -5.32447 3.01796 -7.73928 1 1
534 1 0.841816 20.4843 6.24884 -5.55554 1.00725 7.12979 1 1
535 1 2.69063 18.74 6.31565 -1.70481 -0.0864795 4.03627 1 1
536 1 2.65513 20.5317 4.47929 7.01979 8.38585 3.53291 1 1
537 1 3.54601 17.8441 3.60837 -5.16884 1.6273 -2.38829 1 1
538 1 3.56093 19.6172 5.39901 -3.98007 8.69631 -0.452571 1 1
539 1 5.3404 17.7679 5.36655 4.09208 -1.22901 -2.69424 1 1
540 1 5.34595 19.5862 3.59463 -1.82625 -0.194566 -4.75848 1 1
541 1 4.44377 18.6846 4.52216 -2.64483 2.89239 -3.04759 1 1
542 1 4.43627 20.4942 6.27551 -3.35867 -2.0331 4.12556 1 1
543 1 6.27779 18.7203 6.24775 1.22068 0.918124 0.136918 1 1
544 1 6.20727 20.5252 4.49586 4.2456 7.3286 -2.78904 1 1
545 1 7.13182 17.8383 3.55866 7.25547 -4.17243 -2.98094 1 1
546 1 7.16574 19.612 5.40224 -6.19304 3.13424 -6.09298 1 1
547 1 8.91379 17.8483 5.3725 -3.00358 1.62085 3.45958 1 1
548 1 8.9458 19.6253 3.58538 -6.53204 2.40935 8.29451 1 1
549 1 8.0459 18.7335 4.45687 -4.46427 -4.57382 7.90628 1 1
550 1 8.04311 20.5355 6.26623 -9.53579 -4.6645 8.07653 1 1
551 1 9.81569 18.6998 6.26314 -3.39556 7.00233 3.86219 1 1
552 1 9.78687 20.5443 4.48354 2.65247 0.645808 4.7227 1 1
553 1 10.6872 17.8654 3.60555 -1.9842 -4.25172 2.4375 1 1
554 1 10.6689 19.6152 5.38007 -3.48743 -3.34923 -4.81873 1 1
555 1 12.4512 17.8208 5.36101 1.88936 4.70515 4.16561 1 1
556 1 12.4919 19.6279 3.58881 9.31671 -5.03537 5.25407 1 1