ITEM: TIMESTEP
1450
ITEM: NUMBER OF ATOMS
2952
ITEM: BOX BOUNDS pp pp mm
0.0000000000000000e+00 2.1394294200000001e+01
0.0000000000000000e+00 2.1394294200000001e+01
-4.4571446250000002e-01 5.3485735500000004e+01
ITEM: ATOMS id type x y z vx vy vz v_is_diamond c_structure_type
1 1 0 0 0 0 0 0 1 3
2 1 1.78286 1.78286 0 0 0 0 1 3
3 1 0.891429 0.891429 0.891429 0 0 0 1 2
4 1 0.899048 2.68746 2.70405 -2.53839 9.18212 2.55452 1 1
5 1 2.64676 0.872299 2.70589 -4.72276 3.69269 1.71556 1 1
6 1 2.67429 2.67429 0.891429 0 0 0 1 2
7 1 21.3995 1.761 1.77428 -0.0656949 -10.19 -0.473112 1 1
8 1 1.77725 -0.0357739 1.76416 6.76519 -2.76388 -0.682431 1 1
9 1 1.81128 3.55713 1.80742 -2.1737 1.3865 7.47281 1 1
10 1 3.58805 1.73739 1.78868 -2.27324 4.45526 -4.29855 1 1
11 1 3.56572 0 0 0 0 0 1 3
12 1 5.34857 1.78286 0 0 0 0 1 3
13 1 4.45714 0.891429 0.891429 0 0 0 1 2
14 1 4.47433 2.6835 2.63316 2.21264 -12.3185 7.49108 1 1
15 1 6.25588 0.859746 2.67053 2.54102 -5.70304 -1.96802 1 1
16 1 6.24 2.67429 0.891429 0 0 0 1 2
17 1 7.09801 1.79706 1.78601 6.17399 0.0290961 2.15143 1 1
18 1 7.13143 0 0 0 0 0 1 3
19 1 8.02286 0.891429 0.891429 0 0 0 1 2
20 1 8.00281 2.65088 2.65547 -1.2292 2.0333 -1.86512 1 1
21 1 8.91429 1.78286 0 0 0 0 1 3
22 1 9.74435 0.862512 2.69624 2.24293 -0.525752 5.38472 1 1
23 1 9.80572 2.67429 0.891429 0 0 0 1 2
24 1 8.89133 21.386 1.79409 -4.91161 2.68888 4.08752 1 1
25 1 10.6734 1.79027 1.83348 4.98943 -1.08045 6.63249 1 1
26 1 10.6971 0 0 0 0 0 1 3
27 1 12.48 1.78286 0 0 0 0 1 3
28 1 11.5886 0.891429 0.891429 0 0 0 1 2
29 1 11.5812 2.65696 2.73562 0.593474 -0.324432 3.88073 1 1
30 1 13.3323 0.884893 2.65623 5.7149 6.62462 3.33701 1 1
31 1 13.3714 2.67429 0.891429 0 0 0 1 2
32 1 14.292 1.79975 1.83182 -10.1246 1.73053 -2.92029 1 1
33 1 14.2629 0 0 0 0 0 1 3
34 1 16.0457 1.78286 0 0 0 0 1 3
35 1 15.1543 0.891429 0.891429 0 0 0 1 2
36 1 15.1935 2.69819 2.71512 -7.30514 0.966611 3.98938 1 1
37 1 16.9219 0.883121 2.66643 -3.45395 -0.0671904 7.39082 1 1
38 1 16.9371 2.67429 0.891429 0 0 0 1 2
39 1 16.0489 21.3518 1.77515 6.69302 5.71002 -12.5546 1 1
40 1 17.8287 1.75868 1.8014 3.24298 -0.997968 -1.2228 1 1
41 1 17.8286 0 0 0 0 0 1 3
42 1 19.6114 1.78286 0 0 0 0 1 3
43 1 18.72 0.891429 0.891429 0 0 0 1 2
44 1 18.7298 2.67011 2.70146 5.85126 -0.533196 1.0829 1 1
45 1 20.4686 0.860756 2.68701 -0.821317 -9.4741 5.58328 1 1
46 1 20.5029 2.67429 0.891429 0 0 0 1 2
47 1 0 3.56572 0 0 0 0 1 3
48 1 1.78286 5.34857 0 0 0 0 1 3
49 1 0.891429 4.45714 0.891429 0 0 0 1 2
50 1 0.839278 6.18602 2.7212 1.29835 -0.711042 -0.460705 1 1
51 1 2.68969 4.47846 2.70214 -0.851772 -1.47372 -7.25436 1 1
52 1 2.67429 6.24 0.891429 0 0 0 1 2
53 1 3.5726 5.3667 1.82431 0.840589 -2.76319 5.07415 1 1
54 1 5.34874 3.5521 1.77876 -1.76197 -4.46187 -0.691567 1 1
55 1 3.56572 3.56572 0 0 0 0 1 3
56 1 5.34857 5.34857 0 0 0 0 1 3
57 1 4.45714 4.45714 0.891429 0 0 0 1 2
58 1 4.43944 6.26571 2.67477 2.56696 3.07571 1.77926 1 1
59 1 6.21697 4.43796 2.69311 1.41094 -1.89634 5.76698 1 1
60 1 6.24 6.24 0.891429 0 0 0 1 2
61 1 5.35197 7.12335 1.77716 4.33559 -7.27307 0.272604 1 1
62 1 7.14131 5.36797 1.76966 0.64682 2.44812 2.21983 1 1
63 1 7.13143 3.56572 0 0 0 0 1 3
64 1 8.89331 3.51788 1.78092 0.686074 2.6587 -0.301054 1 1
65 1 8.02286 4.45714 0.891429 0 0 0 1 2
66 1 8.05027 6.24008 2.68525 -2.84284 1.62939 2.87568 1 1
67 1 8.91429 5.34857 0 0 0 0 1 3
68 1 9.79003 4.40909 2.6402 -14.4347 1.21713 -5.7295 1 1
69 1 9.80572 6.24 0.891429 0 0 0 1 2
70 1 10.6648 5.37759 1.7318 1.67069 -0.453955 -0.392704 1 1
71 1 12.4744 3.56942 1.77987 5.94769 0.580037 -9.19353 1 1
72 1 10.6971 3.56572 0 0 0 0 1 3
73 1 12.48 5.34857 0 0 0 0 1 3
74 1 11.5886 4.45714 0.891429 0 0 0 1 2
75 1 11.5989 6.25232 2.68847 3.12495 3.67386 -5.15789 1 1
76 1 13.3745 4.49575 2.69159 -2.51144 -0.498962 -0.104172 1 1
77 1 13.3714 6.24 0.891429 0 0 0 1 2
78 1 14.2471 5.36259 1.7831 5.1135 -3.695 1.68055 1 1
79 1 16.079 3.59205 1.81251 2.01214 4.21233 -0.0853733 1 1
80 1 14.2629 3.56572 0 0 0 0 1 3
81 1 16.0457 5.34857 0 0 0 0 1 3
82 1 15.1543 4.45714 0.891429 0 0 0 1 2
83 1 15.1935 6.27662 2.67822 3.53864 -0.956362 2.83307 1 1
84 1 16.9494 4.50493 2.66831 1.86181 13.545 0.661289 1 1
85 1 16.9371 6.24 0.891429 0 0 0 1 2
86 1 17.8355 5.33076 1.74239 -1.18505 -1.82646 2.40125 1 1
87 1 19.6313 3.56959 1.79697 -2.45516 0.350809 -1.61703 1 1
88 1 21.3648 5.3271 1.7965 4.22236 -4.34933 -2.39878 1 1
89 1 17.8286 3.56572 0 0 0 0 1 3
90 1 19.6114 5.34857 0 0 0 0 1 3
91 1 18.72 4.45714 0.891429 0 0 0 1 2
92 1 18.7028 6.19103 2.65727 -6.44608 7.41705 0.196611 1 1
93 1 20.499 4.46154 2.71244 7.42483 4.09812 9.42633 1 1
94 1 20.5029 6.24 0.891429 0 0 0 1 2
95 1 19.6095 7.1018 1.79983 -1.34201 -6.07704 1.4605 1 1
96 1 1.76909 7.13394 1.75972 -3.86986 0.630866 -3.71406 1 1
97 1 0 7.13143 0 0 0 0 1 3
98 1 0.891429 8.02286 0.891429 0 0 0 1 2
99 1 2.65938 8.01216 2.68329 -4.2949 6.46913 2.11788 1 1
100 1 1.78286 8.91429 0 0 0 0 1 3
101 1 0.900182 9.77115 2.68617 1.94509 7.39067 -4.1967 1 1
102 1 2.67429 9.80572 0.891429 0 0 0 1 2
103 1 1.78688 10.7034 1.7866 -0.469422 -4.37799 1.05902 1 1
104 1 3.55621 8.91578 1.77738 6.63038 4.15342 -0.849438 1 1
105 1 3.56572 7.13143 0 0 0 0 1 3
106 1 4.45714 8.02286 0.891429 0 0 0 1 2
107 1 6.27503 8.01996 2.70073 -2.85194 0.574387 -12.2863 1 1
108 1 5.34857 8.91429 0 0 0 0 1 3
109 1 4.41777 9.79496 2.67896 -2.171 0.531981 -4.51009 1 1
110 1 6.24 9.80572 0.891429 0 0 0 1 2
111 1 7.12917 8.89368 1.76859 4.12534 2.80598 4.22259 1 1
112 1 8.90033 7.13111 1.78018 7.91741 1.64781 2.84634 1 1
113 1 7.13143 7.13143 0 0 0 0 1 3
114 1 8.02286 8.02286 0.891429 0 0 0 1 2
115 1 9.80986 8.02873 2.72321 -0.140885 0.659681 5.46086 1 1
116 1 8.01493 9.84505 2.6849 -0.997048 9.81923 -4.27875 1 1
117 1 8.91429 8.91429 0 0 0 0 1 3
118 1 9.80572 9.80572 0.891429 0 0 0 1 2
119 1 10.6784 8.91931 1.7923 -2.62679 7.71611 7.13288 1 1
120 1 12.4657 7.16888 1.79898 2.98859 -1.82713 2.253 1 1
121 1 10.6971 7.13143 0 0 0 0 1 3
122 1 11.5886 8.02286 0.891429 0 0 0 1 2
123 1 13.3938 8.02775 2.66305 -4.52525 -4.03503 -0.553769 1 1
124 1 12.48 8.91429 0 0 0 0 1 3
125 1 11.5805 9.82887 2.65302 6.45029 -5.58855 -3.68067 1 1
126 1 13.3714 9.80572 0.891429 0 0 0 1 2
127 1 12.4827 10.653 1.77172 1.55752 2.02931 6.75733 1 1
128 1 16.0668 7.20035 1.78277 -4.46942 2.52876 -2.72046 1 1
129 1 14.2502 8.92304 1.79341 12.8936 0.630204 -6.3108 1 1
130 1 14.2629 7.13143 0 0 0 0 1 3
131 1 15.1543 8.02286 0.891429 0 0 0 1 2
132 1 16.9692 8.03115 2.69362 -1.88558 -2.88527 -1.62703 1 1
133 1 16.0457 8.91429 0 0 0 0 1 3
134 1 15.1653 9.80328 2.65176 2.8672 -4.34163 -1.73915 1 1
135 1 16.9371 9.80572 0.891429 0 0 0 1 2
136 1 16.0443 10.6888 1.7718 -5.08904 0.148102 4.43564 1 1
137 1 17.8197 8.90603 1.77083 -2.73598 2.67894 0.292184 1 1
138 1 21.3968 8.89653 1.8054 3.4378 -2.46583 8.21177 1 1
139 1 17.8286 7.13143 0 0 0 0 1 3
140 1 18.72 8.02286 0.891429 0 0 0 1 2
141 1 20.4811 7.95508 2.72251 -6.23238 7.27795 3.59096 1 1
142 1 19.6114 8.91429 0 0 0 0 1 3
143 1 18.6952 9.80261 2.66978 -3.37269 -11.0157 4.57869 1 1
144 1 20.5029 9.80572 0.891429 0 0 0 1 2
145 1 0 10.6971 0 0 0 0 1 3
146 1 1.78286 12.48 0 0 0 0 1 3
147 1 0.891429 11.5886 0.891429 0 0 0 1 2
148 1 2.63215 11.5854 2.72341 0.242526 -6.37158 0.771215 1 1
149 1 0.872252 13.3532 2.70741 -6.20109 -11.3646 -1.6271 1 1
150 1 2.67429 13.3714 0.891429 0 0 0 1 2
151 1 21.4374 12.4576 1.79082 -7.77433 5.06199 -4.23869 1 1
152 1 5.34728 10.7199 1.78107 2.98246 -3.07251 7.66053 1 1
153 1 3.57709 12.4652 1.77292 2.26817 2.9112 -6.13094 1 1
154 1 3.56572 10.6971 0 0 0 0 1 3
155 1 5.34857 12.48 0 0 0 0 1 3
156 1 4.45714 11.5886 0.891429 0 0 0 1 2
157 1 6.227 11.584 2.68409 2.13034 7.09972 -2.25574 1 1
158 1 4.46 13.3441 2.64306 8.69085 6.26013 8.53375 1 1
159 1 6.24 13.3714 0.891429 0 0 0 1 2
160 1 5.33684 14.2939 1.79275 1.64304 8.12912 0.618649 1 1
161 1 8.90204 10.7103 1.77385 2.31182 4.35697 4.45614 1 1
162 1 7.14116 12.4636 1.81436 -0.679479 -1.87924 2.95532 1 1
163 1 7.13143 10.6971 0 0 0 0 1 3
164 1 8.02286 11.5886 0.891429 0 0 0 1 2
165 1 8.91429 12.48 0 0 0 0 1 3
166 1 9.79514 11.5482 2.68819 1.49621 -5.64779 10.3248 1 1
167 1 8.03344 13.3285 2.72387 0.846085 -2.39984 -4.44886 1 1
168 1 9.80572 13.3714 0.891429 0 0 0 1 2
169 1 10.6855 12.4402 1.79046 -7.61298 -1.08784 -3.89709 1 1
170 1 10.6971 10.6971 0 0 0 0 1 3
171 1 12.48 12.48 0 0 0 0 1 3
172 1 11.5886 11.5886 0.891429 0 0 0 1 2
173 1 13.3896 11.5862 2.67878 6.97891 -1.71231 6.2989 1 1
174 1 11.6134 13.3319 2.73609 3.5169 -4.66199 1.97903 1 1
175 1 13.3714 13.3714 0.891429 0 0 0 1 2
176 1 12.4919 14.2599 1.82193 1.77466 -0.891114 -3.74239 1 1
177 1 14.2644 12.5017 1.79441 4.52665 -3.06921 4.47682 1 1
178 1 14.2629 10.6971 0 0 0 0 1 3
179 1 16.0457 12.48 0 0 0 0 1 3
180 1 15.1543 11.5886 0.891429 0 0 0 1 2
181 1 16.91 11.6232 2.69802 4.6202 -9.27492 4.72334 1 1
182 1 15.1664 13.4166 2.66606 2.57563 2.736 5.28585 1 1
183 1 16.9371 13.3714 0.891429 0 0 0 1 2
184 1 17.8124 12.484 1.77827 -3.82997 3.80583 -8.85636 1 1
185 1 19.5813 10.7028 1.76944 0.761447 -4.67811 6.27803 1 1
186 1 17.8286 10.6971 0 0 0 0 1 3
187 1 19.6114 12.48 0 0 0 0 1 3
188 1 18.72 11.5886 0.891429 0 0 0 1 2
189 1 20.4967 11.531 2.72718 5.59016 5.59661 -1.12399 1 1
190 1 18.7335 13.408 2.6949 1.82048 4.82612 -1.13666 1 1
191 1 20.5029 13.3714 0.891429 0 0 0 1 2
192 1 19.6161 14.2473 1.79869 5.04243 2.78829 7.20548 1 1
193 1 1.776 14.2689 1.77312 0.920125 0.435744 2.12948 1 1
194 1 0 14.2629 0 0 0 0 1 3
195 1 1.78286 16.0457 0 0 0 0 1 3
196 1 0.891429 15.1543 0.891429 0 0 0 1 2
197 1 0.845209 16.9618 2.72602 -3.86363 -3.75479 -1.06718 1 1
198 1 2.64018 15.1779 2.71099 -3.2634 10.5333 2.10304 1 1
199 1 2.67429 16.9371 0.891429 0 0 0 1 2
200 1 -0.00906337 16.0698 1.80193 -0.453272 2.52923 9.55115 1 1
201 1 3.55064 16.0682 1.82279 0.179767 6.21305 -5.37843 1 1
202 1 3.56572 14.2629 0 0 0 0 1 3
203 1 5.34857 16.0457 0 0 0 0 1 3
204 1 4.45714 15.1543 0.891429 0 0 0 1 2
205 1 4.41162 16.9596 2.73628 2.76059 -1.26345 4.04633 1 1
206 1 6.24068 15.2059 2.67548 1.36359 9.65795 0.452912 1 1
207 1 6.24 16.9371 0.891429 0 0 0 1 2
208 1 7.13886 16.0426 1.78417 2.07355 3.12183 -4.0205 1 1
209 1 5.32444 17.8084 1.78011 -1.33187 -3.2469 -1.51478 1 1
210 1 8.92182 14.2353 1.79137 0.260061 2.39015 -1.38373 1 1
211 1 7.13143 14.2629 0 0 0 0 1 3
212 1 8.02286 15.1543 0.891429 0 0 0 1 2
213 1 8.04263 16.9417 2.71281 8.45611 10.3919 -9.69179 1 1
214 1 8.91429 16.0457 0 0 0 0 1 3
215 1 9.79449 15.1147 2.67872 -2.47318 0.014234 0.788516 1 1
216 1 9.80572 16.9371 0.891429 0 0 0 1 2
217 1 8.94225 17.8466 1.79024 -1.31109 6.594 4.32143 1 1
218 1 10.7036 16.007 1.77527 9.77108 -5.18279 0.487293 1 1
219 1 10.6971 14.2629 0 0 0 0 1 3
220 1 12.48 16.0457 0 0 0 0 1 3
221 1 11.5886 15.1543 0.891429 0 0 0 1 2
222 1 11.572 16.9105 2.66721 2.20987 -0.280961 4.44638 1 1
223 1 13.3473 15.1376 2.66692 0.23478 1.51597 5.013 1 1
224 1 13.3714 16.9371 0.891429 0 0 0 1 2
225 1 12.4847 17.8093 1.81003 -1.37306 -4.83202 4.23803 1 1
226 1 16.0835 14.2923 1.74095 -5.35365 3.02459 -6.00348 1 1
227 1 14.2375 16.0418 1.8038 -9.34895 4.76864 -2.01869 1 1
228 1 14.2629 14.2629 0 0 0 0 1 3
229 1 16.0457 16.0457 0 0 0 0 1 3
230 1 15.1543 15.1543 0.891429 0 0 0 1 2
231 1 15.164 16.9416 2.66996 3.46401 -2.78967 7.09147 1 1
232 1 16.9257 15.1386 2.71607 5.29832 2.76261 2.56682 1 1
233 1 16.9371 16.9371 0.891429 0 0 0 1 2
234 1 17.844 16.0555 1.77765 0.521473 -4.88778 -6.57078 1 1
235 1 17.8286 14.2629 0 0 0 0 1 3
236 1 19.6114 16.0457 0 0 0 0 1 3
237 1 18.72 15.1543 0.891429 0 0 0 1 2
238 1 18.7117 16.9438 2.68273 1.35976 4.12111 -1.84343 1 1
239 1 20.4618 15.2181 2.69196 -1.3262 -9.25526 0.516487 1 1
240 1 20.5029 16.9371 0.891429 0 0 0 1 2
241 1 19.6264 17.7999 1.79771 -1.91075 -8.66173 -1.58767 1 1
242 1 1.78813 17.8262 1.79867 -9.82337 3.45416 -1.01002 1 1
243 1 0 17.8286 0 0 0 0 1 3
244 1 1.78286 19.6114 0 0 0 0 1 3
245 1 0.891429 18.72 0.891429 0 0 0 1 2
246 1 0.88756 20.5059 2.69587 -0.861544 -2.09434 6.26616 1 1
247 1 2.68341 18.7193 2.6936 -6.25062 6.3451 5.38303 1 1
248 1 2.67429 20.5029 0.891429 0 0 0 1 2
249 1 3.54713 19.5989 1.76929 -1.6637 -1.72521 7.73999 1 1
250 1 21.4334 19.6338 1.78842 1.77302 -3.85568 -1.64887 1 1
251 1 5.35182 -0.0151257 1.77541 0.777248 -6.94545 -0.319152 1 1
252 1 3.56572 17.8286 0 0 0 0 1 3
253 1 5.34857 19.6114 0 0 0 0 1 3
254 1 4.45714 18.72 0.891429 0 0 0 1 2
255 1 4.49463 20.512 2.61928 12.462 7.47762 5.8805 1 1
256 1 6.24077 18.7294 2.63048 1.60965 -4.3257 5.62101 1 1
257 1 6.24 20.5029 0.891429 0 0 0 1 2
258 1 7.12849 19.6024 1.76506 -7.37828 -1.27043 1.94698 1 1
259 1 7.13143 17.8286 0 0 0 0 1 3
260 1 8.02286 18.72 0.891429 0 0 0 1 2
261 1 8.01787 20.5182 2.67016 -0.622195 6.42955 -4.49589 1 1
262 1 8.91429 19.6114 0 0 0 0 1 3
263 1 9.82263 18.75 2.64482 1.24622 2.76038 -0.334117 1 1
264 1 9.80572 20.5029 0.891429 0 0 0 1 2
265 1 10.7184 19.6027 1.76563 -8.07913 1.42228 0.418132 1 1
266 1 12.4595 21.4287 1.75556 3.51566 -0.354686 0.612661 1 1
267 1 10.6971 17.8286 0 0 0 0 1 3
268 1 12.48 19.6114 0 0 0 0 1 3
269 1 11.5886 18.72 0.891429 0 0 0 1 2
270 1 11.6379 20.4712 2.63656 -4.16933 -4.32463 -3.80482 1 1
271 1 13.3802 18.728 2.70003 -4.92967 4.78628 -2.56839 1 1
272 1 13.3714 20.5029 0.891429 0 0 0 1 2
273 1 14.2184 19.5867 1.74307 4.76055 -6.28651 -5.09155 1 1
274 1 16.0442 17.8327 1.79842 -5.42123 7.98837 -0.785748 1 1
275 1 14.2629 17.8286 0 0 0 0 1 3
276 1 16.0457 19.6114 0 0 0 0 1 3
277 1 15.1543 18.72 0.891429 0 0 0 1 2
278 1 15.1346 20.4522 2.6168 4.30017 2.58492 -3.32633 1 1
279 1 16.9479 18.7021 2.67889 5.64311 -0.050169 4.83907 1 1
280 1 16.9371 20.5029 0.891429 0 0 0 1 2
281 1 19.5826 21.3735 1.78914 -8.44959 5.42761 -0.0428163 1 1
282 1 17.7936 19.5799 1.78358 2.16543 -4.65165 -3.27929 1 1
283 1 17.8286 17.8286 0 0 0 0 1 3
284 1 19.6114 19.6114 0 0 0 0 1 3
285 1 18.72 18.72 0.891429 0 0 0 1 2
286 1 18.7067 20.4602 2.69978 -6.90817 2.9352 1.17284 1 1
287 1 20.4762 18.7494 2.71076 -0.216225 2.39783 -7.15914 1 1
288 1 20.5029 20.5029 0.891429 0 0 0 1 2
289 1 1.78978 1.7686 3.58378 2.04042 -6.79253 -2.29952 1 1
290 1 0.856583 0.923212 4.48517 -5.71015 2.5676 -4.47777 1 1
291 1 2.69105 2.63663 4.50571 2.95135 11.8238 -0.419008 1 1
292 1 1.74493 21.415 5.37571 -6.74099 0.603435 -5.16818 1 1
293 1 1.78627 3.54393 5.40892 -3.98307 5.58505 -3.73631 1 1
294 1 21.3568 1.75949 5.38584 -5.79698 1.94291 3.03821 1 1
295 1 21.3493 0.00185742 3.56306 8.25126 -0.212984 -4.15392 1 1
296 1 3.55266 1.72541 5.36038 0.431248 3.46259 6.35202 1 1
297 1 5.33379 1.80539 3.60428 -4.01487 -0.816094 1.51707 1 1
298 1 4.46208 0.889172 4.46688 -6.36302 -2.12517 -0.919807 1 1
299 1 6.20659 0.842144 6.27607 -4.5901 -0.0419354 3.46136 1 1
300 1 6.22556 2.70519 4.47847 2.1535 -0.34937 9.19017 1 1
301 1 3.55306 21.3703 3.60607 -0.515248 4.58394 13.3008 1 1
302 1 7.1285 21.4154 3.5189 3.74808 2.97178 0.0219195 1 1
303 1 5.36065 21.3924 5.37083 4.44582 7.40348 -0.87166 1 1
304 1 7.07647 3.55047 3.55711 -1.38951 -4.26917 8.96288 1 1
305 1 7.13569 1.79984 5.37077 -0.587432 2.01886 3.15322 1 1
306 1 8.87717 1.79804 3.59086 6.16892 -2.52794 4.26887 1 1
307 1 8.00462 0.904072 4.44858 -1.27505 5.26717 0.870969 1 1
308 1 8.00669 2.67943 6.27895 0.863477 -7.52703 2.91678 1 1
309 1 9.75259 0.889121 6.25483 6.58556 -4.09649 -3.08426 1 1
310 1 9.74521 2.67916 4.47931 1.78959 -1.07941 1.84464 1 1
311 1 10.6091 1.75161 5.34805 -1.34397 3.59194 -0.997666 1 1
312 1 12.4792 1.79112 3.59713 -0.0501158 -3.84533 8.74561 1 1
313 1 11.5661 0.88942 4.46955 -0.124761 -1.37591 8.89292 1 1
314 1 11.5576 2.66271 6.26552 -6.37109 -4.36225 3.50517 1 1
315 1 13.3974 2.6443 4.49435 -6.88379 3.76562 3.24151 1 1
316 1 13.3842 0.873357 6.22989 -1.62544 3.96251 -5.07157 1 1
317 1 12.4934 3.56218 5.35473 3.43204 -5.64873 1.83224 1 1
318 1 14.228 1.76734 5.33659 -3.16272 -0.490834 2.78816 1 1
319 1 12.4665 21.3925 5.36921 -1.16321 5.34111 5.8949 1 1
320 1 14.2485 3.57136 3.58309 -4.59489 3.59134 0.264024 1 1
321 1 15.9694 1.74514 3.5671 5.35997 -0.988151 -8.66822 1 1
322 1 15.1233 0.879252 4.47315 -5.58842 6.74967 3.1381 1 1
323 1 15.1516 2.70144 6.27561 -0.474937 2.40385 -3.64532 1 1
324 1 16.9508 2.67214 4.48141 3.96392 2.6657 -1.32413 1 1
325 1 17.8223 1.78541 5.40883 5.94546 5.03362 -1.30869 1 1
326 1 16.0284 21.3862 5.39574 11.0782 2.65093 -0.494268 1 1
327 1 19.5747 1.76145 3.58214 4.92606 -2.58025 3.01485 1 1
328 1 18.6844 0.903928 4.49859 -3.03087 8.1856 -2.70344 1 1
329 1 20.482 2.65639 4.4836 4.26023 2.22462 5.51481 1 1
330 1 17.83 -0.0730171 3.64027 10.1236 -5.52411 -1.80431 1 1
331 1 19.5775 21.3996 5.42886 -4.59006 -2.4026 4.53435 1 1
332 1 21.3614 3.5504 3.60739 2.27352 11.2736 -5.63669 1 1
333 1 1.83447 5.38347 3.62432 7.40595 2.591 -0.76804 1 1
334 1 0.879336 4.48395 4.4817 3.66748 -1.14304 0.866714 1 1
335 1 2.67035 4.49968 6.27364 0.591002 -12.1147 -4.49771 1 1
336 1 2.66579 6.23525 4.50836 0.912965 -7.94148 -0.908231 1 1
337 1 3.55092 3.58651 3.56357 0.584546 2.71481 -2.28928 1 1
338 1 21.3691 5.31853 5.38522 3.8719 3.88569 9.14068 1 1
339 1 3.54737 5.34994 5.38876 0.751982 -5.64541 3.56162 1 1
340 1 5.33998 3.60203 5.39332 6.79364 -2.48078 3.55273 1 1
341 1 5.32503 5.36914 3.55841 9.92656 4.0451 3.51255 1 1
342 1 4.46366 4.45595 4.46393 -11.1316 2.72876 7.35084 1 1
343 1 4.51098 6.21654 6.27533 -4.89858 -2.36004 -5.66757 1 1
344 1 6.263 6.2781 4.43954 2.75301 4.96351 0.795369 1 1
345 1 7.13387 5.36572 5.37383 -4.37203 -2.41809 0.0483989 1 1
346 1 5.34576 7.10963 5.37028 -4.40119 2.37301 -5.06529 1 1
347 1 6.23668 4.4598 6.29089 -8.92838 -0.491849 2.86213 1 1
348 1 8.84666 3.57994 5.33666 2.02457 -3.29779 4.82278 1 1
349 1 10.6664 3.54325 3.58852 3.73073 1.81164 3.03692 1 1
350 1 8.92266 5.32755 3.54786 -3.72288 0.943394 -4.86891 1 1
351 1 7.9924 4.45487 4.4569 4.94458 2.16737 4.55302 1 1
352 1 8.03637 6.29509 6.27284 1.79204 2.92781 7.10787 1 1
353 1 9.72674 4.44703 6.19496 2.33769 0.17708 -1.73057 1 1
354 1 9.82478 6.23812 4.47155 -2.68182 3.65457 0.881991 1 1
355 1 10.6393 5.31347 5.3559 -0.994993 5.95146 0.477632 1 1
356 1 12.4765 5.30523 3.60679 7.11028 -4.70018 2.57259 1 1
357 1 11.594 4.45463 4.49331 3.25267 -5.47549 5.01363 1 1
358 1 13.3165 6.19334 4.49029 -4.25787 9.66046 2.39089 1 1
359 1 14.2529 5.36488 5.37034 -2.60905 2.39455 1.62338 1 1
360 1 16.0134 3.59343 5.40256 3.68626 7.04207 -4.76294 1 1
361 1 17.846 3.56719 3.56847 0.842891 -6.17675 2.51955 1 1
362 1 16.0237 5.37536 3.55008 7.12501 5.45338 0.616899 1 1
363 1 15.169 4.47623 4.46479 7.32987 0.191213 8.68789 1 1
364 1 16.9216 6.22633 4.45379 3.52889 -2.6191 -3.60956 1 1
365 1 16.9343 4.43246 6.26133 3.10589 -0.853976 -0.780267 1 1
366 1 16.041 7.08542 5.38064 -0.939777 2.54302 1.71348 1 1
367 1 15.1264 6.2229 6.28296 -0.869589 1.68843 5.16803 1 1
368 1 19.6009 3.5637 5.33376 0.813116 7.64533 -4.58554 1 1
369 1 17.8015 5.37962 5.36743 -3.55402 -1.02636 0.523144 1 1
370 1 19.5676 5.37327 3.58276 8.32859 7.69574 3.87687 1 1
371 1 18.6616 4.45645 4.48367 1.52176 -2.16999 15.0579 1 1
372 1 20.472 4.43167 6.27429 1.80376 -0.647058 2.58612 1 1
373 1 20.47 6.2631 4.53213 -1.71924 0.72694 8.08265 1 1
374 1 19.5717 7.13254 5.37543 -5.55418 0.113821 10.0326 1 1
375 1 21.3653 7.1006 3.57911 -0.717217 -2.23618 2.33753 1 1
376 1 1.77763 7.14836 5.38089 2.23996 -5.26381 8.92149 1 1
377 1 1.73304 8.88826 3.5954 -1.76051 6.29778 9.89238 1 1
378 1 0.836471 7.978 4.47202 1.4927 7.73783 -1.92007 1 1
379 1 2.65655 7.982 6.24744 3.46412 3.1366 -7.81489 1 1
380 1 0.881792 9.79915 6.27395 -0.861468 6.76712 3.25384 1 1
381 1 2.6686 9.8167 4.47253 7.50176 0.686702 -8.31309 1 1
382 1 21.3671 8.91549 5.36752 1.52007 4.74536 4.15963 1 1
383 1 1.72256 10.7111 5.38055 -1.88952 -6.08474 5.89431 1 1
384 1 3.54095 7.11487 3.55561 -5.17003 -5.97335 -2.75243 1 1
385 1 7.11332 7.14644 3.578 -0.698409 3.09156 -1.90549 1 1
386 1 3.52589 10.6821 3.65243 0.591289 -1.89212 2.834 1 1
387 1 3.54114 8.89657 5.39783 3.79044 0.878104 -0.830742 1 1
388 1 5.33989 8.88148 3.60853 -3.86139 5.65756 -7.37262 1 1
389 1 4.45035 8.0395 4.47272 6.07453 -2.44476 -0.90929 1 1
390 1 4.45283 9.7585 6.27832 5.68981 -3.558 -2.16259 1 1
391 1 6.24514 9.82123 4.43971 -3.34366 -5.67822 -1.49324 1 1
392 1 8.94344 7.17107 5.37323 -6.94089 7.8953 -2.34088 1 1
393 1 7.11735 8.93158 5.35546 3.37235 4.56533 1.78223 1 1
394 1 8.91944 8.94593 3.60459 -2.69386 7.27789 2.04102 1 1
395 1 8.04388 8.0533 4.45204 -4.6713 19.6579 4.56615 1 1
396 1 9.80755 9.78454 4.49978 -2.33828 -1.34524 1.68125 1 1
397 1 10.7183 8.92956 5.36245 0.313503 -1.86165 2.14612 1 1
398 1 10.6601 10.6346 3.53612 -6.13919 -0.644754 -5.08449 1 1
399 1 9.78896 8.04685 6.28863 -7.5186 -0.910388 -1.87552 1 1
400 1 12.4696 7.13295 5.36632 0.963529 6.30121 -0.463432 1 1
401 1 10.6897 7.15302 3.56064 7.72909 6.01079 5.16029 1 1
402 1 12.5086 8.91074 3.53476 4.31083 -1.98436 6.9576 1 1
403 1 11.5706 8.04365 4.43285 1.61791 -0.85914 3.73992 1 1
404 1 13.3119 9.79216 4.52075 4.32063 -4.29647 -0.95465 1 1
405 1 14.2242 7.1351 3.58207 -3.94697 -2.00493 -3.95248 1 1
406 1 14.225 8.89249 5.36736 7.464 -2.10522 4.26106 1 1
407 1 17.7675 7.16853 3.60201 -1.55834 -0.628502 6.07709 1 1
408 1 16.0036 8.95331 3.55715 -6.16354 -2.07116 1.47692 1 1
409 1 15.1531 8.00589 4.52513 -4.58375 10.4004 2.44967 1 1
410 1 16.8872 9.83847 4.45575 -1.47864 -0.98368 3.45627 1 1
411 1 16.0191 10.7129 5.38276 4.45791 3.28661 4.64596 1 1
412 1 16.9235 8.00973 6.25991 -7.04897 0.692873 4.53168 1 1
413 1 17.7623 8.91308 5.38662 1.4141 -11.9516 9.41655 1 1
414 1 19.6165 8.90138 3.58727 0.678493 5.04064 3.13566 1 1
415 1 18.6685 8.04001 4.49882 -4.75702 2.74823 1.80004 1 1
416 1 18.7177 9.77181 6.28396 3.8747 -12.1425 -1.30343 1 1
417 1 20.4738 9.78735 4.4928 6.44205 4.766 1.60947 1 1
418 1 20.463 8.03251 6.25863 3.82213 1.32414 1.56292 1 1
419 1 19.5529 10.6842 5.37667 -10.657 -0.249615 -1.16298 1 1
420 1 21.4083 10.6888 3.61872 5.68919 9.91495 2.89814 1 1
421 1 1.75575 12.4731 3.58817 -2.78653 -1.18111 -5.14359 1 1
422 1 0.823067 11.585 4.48594 -0.727981 4.44834 -0.226971 1 1
423 1 2.68651 11.5593 6.30878 -2.80851 4.93493 4.93049 1 1
424 1 0.864146 13.3395 6.27225 0.456861 1.11483 2.38537 1 1
425 1 2.60895 13.4151 4.48006 -1.07997 3.01721 0.32485 1 1
426 1 -0.0366955 12.4555 5.38206 -1.47107 0.755 -2.26693 1 1
427 1 5.37642 10.6837 5.40186 -5.71464 -0.0341424 6.55429 1 1
428 1 3.55509 14.2346 3.59143 1.04095 -0.9176 -0.0277229 1 1
429 1 3.52844 12.4884 5.39076 -1.38934 2.26964 1.55603 1 1
430 1 5.32419 12.4489 3.57969 -2.31635 -4.89002 3.81737 1 1
431 1 4.46886 11.5484 4.51826 -3.8064 4.43328 4.32388 1 1
432 1 6.22774 13.3816 4.46681 4.30273 0.438923 -9.01676 1 1
433 1 7.1076 14.2392 3.60332 7.40563 0.257579 -3.08386 1 1
434 1 6.27496 11.5903 6.24641 0.817062 -0.438114 1.36518 1 1
435 1 7.11024 10.7066 3.54309 -4.52159 -4.77294 -3.20953 1 1
436 1 7.14392 12.4705 5.40707 0.0861234 -5.88042 0.803612 1 1
437 1 8.86996 10.6612 5.35397 -0.618817 1.21292 0.348625 1 1
438 1 8.92381 12.4379 3.61949 -0.679572 5.48855 0.0912248 1 1
439 1 8.05813 11.5916 4.49551 8.30111 2.37787 10.9 1 1
440 1 9.80234 11.5491 6.22934 3.44916 10.1149 -2.10275 1 1
441 1 8.05355 13.3667 6.2153 -0.433722 -5.90467 -0.777349 1 1
442 1 9.80809 13.319 4.46876 -8.38769 0.782034 0.143839 1 1
443 1 10.6951 14.2598 3.58107 0.379577 -6.21876 0.150117 1 1
444 1 12.4587 10.6967 5.36308 -5.22833 -7.98287 5.52744 1 1
445 1 10.7167 12.4546 5.37299 -1.46191 -1.585 14.2207 1 1
446 1 12.4756 12.4364 3.58406 4.78909 -5.9869 -4.24926 1 1
447 1 11.5588 11.5234 4.47524 5.3182 0.0658525 4.44866 1 1
448 1 13.3817 11.5671 6.25807 0.107736 -0.612725 4.06467 1 1
449 1 11.583 13.3647 6.22212 6.87813 -1.13384 -8.11165 1 1
450 1 13.3645 13.3171 4.48766 -0.828986 1.13325 5.35367 1 1
451 1 14.2598 10.6833 3.60009 -0.655105 0.0106662 -3.51388 1 1
452 1 14.289 12.4871 5.37827 0.820302 -1.07123 4.58214 1 1
453 1 16.0153 12.5163 3.54705 11.5709 -2.63417 2.97081 1 1
454 1 15.169 11.6121 4.48152 -2.8693 -3.22136 -1.27866 1 1
455 1 16.8902 11.6054 6.23852 4.9172 2.14841 -1.77874 1 1
456 1 16.9282 13.4229 4.47242 1.61817 -3.86203 3.83257 1 1
457 1 17.8244 12.5189 5.36249 -6.18824 9.18726 1.07078 1 1
458 1 15.1248 13.4056 6.31336 -4.40482 -0.0798931 -2.97624 1 1
459 1 17.8233 10.7418 3.52098 2.60763 -4.67298 1.6887 1 1
460 1 19.6132 12.5043 3.58832 -5.54903 3.41061 -1.52543 1 1
461 1 18.6898 11.5873 4.46926 -6.32507 0.938335 -0.158944 1 1
462 1 18.7081 13.3721 6.27794 0.288547 -0.302525 -6.02001 1 1
463 1 20.458 13.386 4.48678 -3.23811 2.74041 9.68811 1 1
464 1 20.4452 11.5705 6.28953 -5.43551 -0.261298 7.06598 1 1
465 1 1.76525 14.2987 5.37964 2.20312 -4.37257 -3.4762 1 1
466 1 1.76002 16.0847 3.6125 -1.51471 -6.67355 0.187602 1 1
467 1 0.877495 15.187 4.44931 2.98959 1.90001 -8.01591 1 1
468 1 2.67181 15.1516 6.24638 -4.25526 0.95869 -0.511172 1 1
469 1 2.6637 16.9798 4.49637 2.63649 -5.22502 -7.2338 1 1
470 1 21.3679 16.0836 5.34032 5.68085 -1.39395 0.531285 1 1
471 1 -0.031421 14.2947 3.57492 -9.50948 3.04801 4.59143 1 1
472 1 1.77091 17.8363 5.36252 8.37142 -4.08947 -6.57361 1 1
473 1 5.31153 14.2866 5.37295 -4.85335 -0.182337 -0.455785 1 1
474 1 3.57885 16.0463 5.31013 1.70665 1.51509 1.38334 1 1
475 1 5.34698 16.0392 3.60176 11.7705 2.95526 0.380209 1 1
476 1 4.44345 15.1469 4.43001 7.92255 -0.150522 3.67163 1 1
477 1 4.47006 16.9468 6.23585 0.678286 -2.74593 0.775378 1 1
478 1 6.22992 15.209 6.28175 -8.24347 5.24443 -3.65567 1 1
479 1 6.20394 16.9087 4.4605 -4.84467 -2.49432 9.63764 1 1
480 1 7.11276 16.0971 5.36471 4.10472 2.44512 0.0907396 1 1
481 1 8.93937 14.2416 5.3558 -8.87545 3.01608 2.53889 1 1
482 1 8.9477 16.031 3.5808 0.891254 -3.214 3.8825 1 1
483 1 7.95226 15.1437 4.49598 -1.27729 -2.93048 -1.6808 1 1
484 1 7.99522 16.9636 6.20967 -0.887572 -5.99892 -6.00897 1 1
485 1 9.81672 15.17 6.21527 -6.36098 4.23907 8.49309 1 1
486 1 9.84718 16.9479 4.43877 2.48235 6.32401 3.97638 1 1
487 1 10.6889 16.0601 5.38287 5.5885 -1.52149 6.29828 1 1
488 1 8.95007 17.8171 5.32711 -3.85513 7.159 2.88304 1 1
489 1 10.7126 17.8189 3.53949 4.89624 -4.11203 4.22956 1 1
490 1 12.4897 14.2292 5.35117 2.1283 -1.4563 -3.01485 1 1
491 1 12.4589 16.0306 3.59161 1.28438 9.73106 4.62794 1 1
492 1 11.5812 15.1771 4.48771 6.33029 5.9569 1.52374 1 1
493 1 11.6117 16.9351 6.25362 0.0433606 2.99439 2.16031 1 1
494 1 13.3715 16.9174 4.46364 -1.02574 -1.65087 9.6607 1 1
495 1 13.3789 15.1273 6.26734 6.16182 0.724938 8.20995 1 1
496 1 12.4635 17.8191 5.35 -0.231803 9.30821 5.07296 1 1
497 1 14.2647 14.2772 3.5708 -4.5085 8.84013 4.6145 1 1
498 1 16.0428 14.3028 5.3667 0.118938 0.892699 0.28743 1 1
499 1 17.7913 14.2627 3.57307 3.01979 0.235058 -4.2121 1 1
500 1 14.2663 16.0511 5.35421 -7.50487 -6.823 -6.84552 1 1
501 1 14.2512 17.8126 3.58994 -2.83059 3.92898 4.54627 1 1
502 1 16.0569 16.0611 3.59712 5.80578 -0.100784 -0.19866 1 1
503 1 15.1495 15.1554 4.47342 3.57637 -5.90417 4.0648 1 1
504 1 16.9224 16.9527 4.49719 4.215 2.60743 -1.65776 1 1
505 1 16.9688 15.1416 6.25013 1.01229 6.89372 0.761361 1 1
506 1 17.8604 16.0072 5.33946 -4.75996 10.0796 1.29715 1 1
507 1 19.6294 14.2393 5.39826 4.0933 2.5844 1.63834 1 1
508 1 19.6025 16.0819 3.57453 -7.66825 -0.366243 5.50572 1 1
509 1 18.7506 15.1236 4.46524 -8.51383 1.34398 -3.02458 1 1
510 1 20.4834 16.9774 4.49083 -2.69574 -4.12174 8.60642 1 1
511 1 19.621 17.8351 5.35145 6.56664 -8.158 -1.27029 1 1
512 1 20.5218 15.0954 6.22387 4.18999 5.74777 -5.29772 1 1
513 1 1.7697 19.6138 3.60005 -1.76537 -6.17001 5.49894 1 1
514 1 0.867904 18.7555 4.50941 0.580893 -0.271532 -1.51119 1 1
515 1 0.852802 20.5016 6.27703 0.177349 -3.14482 -6.95184 1 1
516 1 2.62158 20.5169 4.48181 4.44917 -6.35017 4.06654 1 1
517 1 21.4163 17.8285 3.6053 3.06848 6.77685 8.27303 1 1
518 1 21.3912 19.6062 5.37846 0.894537 1.86093 0.987344 1 1
519 1 2.66655 18.7384 6.24241 -11.2663 -1.76625 1.76953 1 1
520 1 5.34195 17.8276 5.34704 0.920113 6.17578 0.0565515 1 1
521 1 3.56411 17.8647 3.59067 -4.96959 1.57884 -0.398172 1 1
522 1 3.57103 19.5953 5.33024 0.703084 5.08548 -9.2248 1 1
523 1 5.33381 19.6399 3.55704 9.74846 3.09111 -6.85864 1 1
524 1 4.48252 18.7452 4.49233 -3.77651 6.93782 -0.799463 1 1
525 1 4.46052 20.5064 6.26514 0.373304 5.45254 -1.24694 1 1
526 1 6.20649 18.6841 6.20759 2.0666 0.108487 3.11554 1 1
527 1 6.23319 20.5211 4.41396 -2.76219 1.02428 1.30161 1 1
528 1 7.08497 17.8265 3.50175 -1.7895 2.86182 -0.0821715 1 1
529 1 7.09469 19.5905 5.37687 -4.15905 1.58563 4.54238 1 1
530 1 8.88395 21.3566 5.35086 -1.12648 5.20728 -2.88183 1 1
531 1 8.90721 19.6045 3.56205 4.07464 1.91912 -5.11731 1 1
532 1 7.99835 18.698 4.44118 -2.04137 -5.44178 14.5991 1 1
533 1 8.0121 20.4693 6.23972 -13.096 5.51869 4.99999 1 1
534 1 9.8364 18.7068 6.21452 0.500851 3.69427 1.59643 1 1
535 1 9.80046 20.5021 4.50425 3.75683 -0.698971 6.04508 1 1
536 1 10.7233 19.612 5.37063 6.92349 0.352894 3.30183 1 1
537 1 10.6793 -0.0309022 3.56171 5.67372 -2.28946 2.74628 1 1
538 1 12.4522 19.6422 3.57958 0.562764 4.43033 -0.174707 1 1
539 1 11.612 18.7093 4.46693 0.936809 3.5366 2.0837 1 1
540 1 13.2945 18.7334 6.29683 -0.107885 -1.91537 3.65749 1 1
541 1 13.3631 20.4836 4.48813 -5.53275 0.337319 1.52463 1 1
542 1 16.0144 17.8625 5.37121 -9.72855 2.65336 5.86074 1 1
543 1 14.2639 21.3501 3.60278 -2.61082 0.408509 -1.21578 1 1
544 1 14.2517 19.5722 5.36906 3.56447 2.88349 -1.13931 1 1
545 1 16.0192 19.5766 3.5239 -2.36647 -1.06214 -0.360096 1 1
546 1 15.1863 18.729 4.53117 -1.05308 -4.37813 -1.33515 1 1
547 1 16.9666 18.673 6.2508 -4.55369 1.36881 8.52539 1 1
548 1 16.882 20.4774 4.49018 3.69767 -2.60245 -2.05329 1 1
549 1 17.8291 19.6164 5.36316 -2.7153 0.367038 -4.23927 1 1
550 1 17.8092 17.8179 3.58035 -1.59322 1.90052 1.46464 1 1
551 1 19.5966 19.6093 3.57367 5.67302 3.18048 -6.39391 1 1
552 1 18.6811 18.7432 4.45977 3.04858 3.32115 -0.470159 1 1
553 1 18.6534 20.5096 6.25703 3.36636 -5.30818 -0.017661 1 1
554 1 20.5127 18.7417 6.26196 1.41913 4.32247 -1.61538 1 1
555 1 20.4425 20.5267 4.47933 2.7801 -6.36694 9.69033 1 1
556 1 2.66185 0.85898 6.27266 2.74976 2.17918 7.44353 1 1
557 1 0.874294 2.69314 6.2937 13.2145 -1.11606 6.61257 1 1