ITEM: TIMESTEP
900
ITEM: NUMBER OF ATOMS
2953
ITEM: BOX BOUNDS pp pp mm
0.0000000000000000e+00 2.1394294200000001e+01
0.0000000000000000e+00 2.1394294200000001e+01
-4.4571446250000002e-01 5.3485735500000004e+01
ITEM: ATOMS id type x y z vx vy vz v_is_diamond c_structure_type
1 1 0 0 0 0 0 0 1 3
2 1 0.0107552 1.75601 1.84056 7.99115 -9.91641 6.99288 1 1
3 1 1.80363 0.0115486 1.7617 3.27819 -2.32961 0.462766 1 1
4 1 1.78286 1.78286 0 0 0 0 1 3
5 1 0.891429 0.891429 0.891429 0 0 0 1 2
6 1 0.863295 2.66811 2.71862 -2.35116 5.20183 -4.92863 1 1
7 1 2.64324 0.89428 2.70211 -4.95335 4.84043 0.495882 1 1
8 1 2.67429 2.67429 0.891429 0 0 0 1 2
9 1 3.56572 0 0 0 0 0 1 3
10 1 3.56904 1.7534 1.777 3.3783 -1.15719 -2.66601 1 1
11 1 5.35762 21.372 1.75463 -3.74508 -3.84157 6.42394 1 1
12 1 5.34857 1.78286 0 0 0 0 1 3
13 1 4.45714 0.891429 0.891429 0 0 0 1 2
14 1 4.48221 2.69404 2.65724 5.68558 -11.3722 6.25836 1 1
15 1 6.2733 0.881468 2.70089 4.69412 -0.0949084 -6.19 1 1
16 1 6.24 2.67429 0.891429 0 0 0 1 2
17 1 7.13143 0 0 0 0 0 1 3
18 1 7.18891 1.78191 1.83135 5.60547 -3.33011 -1.61354 1 1
19 1 8.90135 0.01529 1.85081 -0.147038 7.96874 -1.00341 1 1
20 1 8.91429 1.78286 0 0 0 0 1 3
21 1 8.02286 0.891429 0.891429 0 0 0 1 2
22 1 8.06183 2.69228 2.74535 2.02493 -1.05334 -1.26509 1 1
23 1 9.81309 0.909045 2.74095 -0.296459 1.94977 8.48309 1 1
24 1 9.80572 2.67429 0.891429 0 0 0 1 2
25 1 10.6971 0 0 0 0 0 1 3
26 1 10.7279 1.79595 1.79836 3.85155 -4.85013 0.730743 1 1
27 1 12.4677 21.391 1.77472 -8.79765 -2.19198 -2.66416 1 1
28 1 12.48 1.78286 0 0 0 0 1 3
29 1 11.5886 0.891429 0.891429 0 0 0 1 2
30 1 11.6086 2.67691 2.69134 -9.25069 -2.16781 1.6898 1 1
31 1 13.3531 0.888005 2.61793 6.40979 -2.6014 3.13571 1 1
32 1 13.3714 2.67429 0.891429 0 0 0 1 2
33 1 14.2629 0 0 0 0 0 1 3
34 1 14.2759 1.81431 1.76584 -6.22276 4.39747 2.17849 1 1
35 1 16.0606 0.00504732 1.77362 -2.88254 3.45293 4.20619 1 1
36 1 16.0457 1.78286 0 0 0 0 1 3
37 1 15.1543 0.891429 0.891429 0 0 0 1 2
38 1 15.1439 2.69256 2.66503 6.96285 7.23232 -0.222444 1 1
39 1 16.9414 0.917407 2.68771 -5.87425 0.619 0.48203 1 1
40 1 16.9371 2.67429 0.891429 0 0 0 1 2
41 1 17.8286 0 0 0 0 0 1 3
42 1 17.8446 1.7925 1.80061 -3.11469 -1.96033 -6.35186 1 1
43 1 19.6006 21.3857 1.77501 -5.4244 1.14983 -6.79264 1 1
44 1 19.6114 1.78286 0 0 0 0 1 3
45 1 18.72 0.891429 0.891429 0 0 0 1 2
46 1 18.7232 2.691 2.67223 6.54727 5.7043 4.13706 1 1
47 1 20.5307 0.851433 2.74056 -1.02543 -5.24988 -1.83465 1 1
48 1 20.5029 2.67429 0.891429 0 0 0 1 2
49 1 0 3.56572 0 0 0 0 1 3
50 1 21.3785 5.36199 1.80134 0.0941903 6.65849 -5.40234 1 1
51 1 1.76316 3.53387 1.81535 4.29641 -0.350685 -0.381853 1 1
52 1 1.78286 5.34857 0 0 0 0 1 3
53 1 0.891429 4.45714 0.891429 0 0 0 1 2
54 1 0.892956 6.26304 2.6948 0.702759 2.05545 1.81614 1 1
55 1 2.66946 4.42368 2.65015 1.70661 -0.0810301 -6.884 1 1
56 1 2.67429 6.24 0.891429 0 0 0 1 2
57 1 3.56572 3.56572 0 0 0 0 1 3
58 1 3.54701 5.37035 1.80782 0.617091 1.9073 -1.23209 1 1
59 1 5.36941 3.57477 1.7554 -0.897942 1.28041 -1.93789 1 1
60 1 5.34857 5.34857 0 0 0 0 1 3
61 1 4.45714 4.45714 0.891429 0 0 0 1 2
62 1 4.47476 6.24817 2.69683 -1.37006 5.91474 -0.381297 1 1
63 1 6.26792 4.41602 2.70348 6.60197 3.21606 0.387154 1 1
64 1 6.24 6.24 0.891429 0 0 0 1 2
65 1 7.13143 3.56572 0 0 0 0 1 3
66 1 7.14144 5.3422 1.8023 -2.40554 3.13729 -4.40298 1 1
67 1 8.91796 3.57108 1.75273 6.33173 6.99319 1.74358 1 1
68 1 8.91429 5.34857 0 0 0 0 1 3
69 1 8.02286 4.45714 0.891429 0 0 0 1 2
70 1 8.0239 6.21618 2.70784 3.91226 -0.331352 3.11528 1 1
71 1 9.79147 4.45597 2.69787 -1.95392 0.779082 -4.54124 1 1
72 1 9.80572 6.24 0.891429 0 0 0 1 2
73 1 10.6971 3.56572 0 0 0 0 1 3
74 1 10.6628 5.37585 1.78772 -0.475835 -5.52908 2.16241 1 1
75 1 12.4822 3.58909 1.81115 -6.11424 -0.595248 2.99273 1 1
76 1 12.48 5.34857 0 0 0 0 1 3
77 1 11.5886 4.45714 0.891429 0 0 0 1 2
78 1 11.6325 6.2309 2.65431 3.86507 -1.83549 -4.27846 1 1
79 1 13.3551 4.51552 2.71738 2.50074 -2.20148 -2.42742 1 1
80 1 13.3714 6.24 0.891429 0 0 0 1 2
81 1 14.2629 3.56572 0 0 0 0 1 3
82 1 14.2321 5.34718 1.81162 -1.45543 3.61236 -1.59394 1 1
83 1 16.0391 3.57575 1.774 0.32653 -1.07224 -2.95056 1 1
84 1 16.0457 5.34857 0 0 0 0 1 3
85 1 15.1543 4.45714 0.891429 0 0 0 1 2
86 1 15.0991 6.2463 2.73009 1.3567 -4.08275 5.60608 1 1
87 1 16.8711 4.48471 2.67242 1.19286 2.86352 -4.79699 1 1
88 1 16.9371 6.24 0.891429 0 0 0 1 2
89 1 17.8286 3.56572 0 0 0 0 1 3
90 1 17.8283 5.33885 1.8228 -3.44446 10.0752 2.9589 1 1
91 1 19.6192 3.58312 1.82083 0.84388 -1.22907 0.480364 1 1
92 1 19.6114 5.34857 0 0 0 0 1 3
93 1 18.72 4.45714 0.891429 0 0 0 1 2
94 1 18.6743 6.23799 2.72604 3.90316 5.95731 -1.97211 1 1
95 1 20.5017 4.4829 2.68493 -1.4517 -2.23433 8.80441 1 1
96 1 20.5029 6.24 0.891429 0 0 0 1 2
97 1 0 7.13143 0 0 0 0 1 3
98 1 21.3633 8.93313 1.80974 4.87156 -4.96307 -5.92537 1 1
99 1 1.79512 7.16658 1.7911 1.07506 -0.0749094 2.12027 1 1
100 1 1.78286 8.91429 0 0 0 0 1 3
101 1 0.891429 8.02286 0.891429 0 0 0 1 2
102 1 0.901169 9.8186 2.69237 -2.34898 -2.48554 -3.90339 1 1
103 1 2.68486 8.06371 2.71112 2.92857 -5.97386 7.36771 1 1
104 1 2.67429 9.80572 0.891429 0 0 0 1 2
105 1 3.56572 7.13143 0 0 0 0 1 3
106 1 3.57725 8.96179 1.77356 0.671753 -5.2993 9.50568 1 1
107 1 5.32193 7.12545 1.76469 -5.02216 -4.12764 3.5125 1 1
108 1 5.34857 8.91429 0 0 0 0 1 3
109 1 4.45714 8.02286 0.891429 0 0 0 1 2
110 1 4.4761 9.84665 2.67553 10.2649 6.90179 10.6419 1 1
111 1 6.24295 8.0144 2.61071 -2.69195 9.9414 -7.32411 1 1
112 1 6.24 9.80572 0.891429 0 0 0 1 2
113 1 7.13143 7.13143 0 0 0 0 1 3
114 1 7.12016 8.95124 1.79842 -0.661572 -1.9467 4.25068 1 1
115 1 8.93993 7.14114 1.79327 7.05986 -0.299789 -0.0850429 1 1
116 1 8.91429 8.91429 0 0 0 0 1 3
117 1 8.02286 8.02286 0.891429 0 0 0 1 2
118 1 7.97399 9.82565 2.69531 -0.928924 5.83725 7.67031 1 1
119 1 9.86636 8.04634 2.73808 3.8297 -1.33594 -2.85809 1 1
120 1 9.80572 9.80572 0.891429 0 0 0 1 2
121 1 10.6971 7.13143 0 0 0 0 1 3
122 1 10.7256 8.92682 1.78859 -4.22465 5.38612 -5.1586 1 1
123 1 12.4731 7.16787 1.77754 5.34882 -1.33035 5.34959 1 1
124 1 12.48 8.91429 0 0 0 0 1 3
125 1 11.5886 8.02286 0.891429 0 0 0 1 2
126 1 11.5875 9.83372 2.6553 0.527972 4.22373 -0.418913 1 1
127 1 13.3416 8.02475 2.69955 4.51448 -1.27148 3.06532 1 1
128 1 13.3714 9.80572 0.891429 0 0 0 1 2
129 1 14.2629 7.13143 0 0 0 0 1 3
130 1 14.2647 8.93168 1.80954 5.82244 1.11037 -5.54958 1 1
131 1 16.0096 7.13345 1.81908 1.57797 -5.05768 -0.175389 1 1
132 1 16.0457 8.91429 0 0 0 0 1 3
133 1 15.1543 8.02286 0.891429 0 0 0 1 2
134 1 15.2012 9.79793 2.69778 -7.66283 3.50066 0.0946525 1 1
135 1 16.9265 7.97492 2.70376 6.16123 1.01823 -9.17442 1 1
136 1 16.9371 9.80572 0.891429 0 0 0 1 2
137 1 17.8286 7.13143 0 0 0 0 1 3
138 1 17.8208 8.90722 1.79069 2.12775 4.63012 -1.60401 1 1
139 1 19.6168 7.10663 1.81081 7.78043 0.250785 4.69221 1 1
140 1 19.6114 8.91429 0 0 0 0 1 3
141 1 18.72 8.02286 0.891429 0 0 0 1 2
142 1 18.6863 9.84799 2.72574 -6.62702 -11.9714 7.79601 1 1
143 1 20.5188 8.01094 2.72111 -1.23723 -2.1512 5.36541 1 1
144 1 20.5029 9.80572 0.891429 0 0 0 1 2
145 1 0 10.6971 0 0 0 0 1 3
146 1 0.0059572 12.4512 1.75408 4.05684 -6.20831 -6.80486 1 1
147 1 1.80958 10.6812 1.80345 1.63449 4.2631 3.24688 1 1
148 1 1.78286 12.48 0 0 0 0 1 3
149 1 0.891429 11.5886 0.891429 0 0 0 1 2
150 1 0.879234 13.3542 2.68681 -2.55074 -5.9896 -1.77686 1 1
151 1 2.71133 11.5628 2.70659 2.18244 -5.76748 -5.2354 1 1
152 1 2.67429 13.3714 0.891429 0 0 0 1 2
153 1 3.56572 10.6971 0 0 0 0 1 3
154 1 3.60377 12.4729 1.77218 -6.82698 2.10295 -8.13907 1 1
155 1 5.39561 10.7229 1.78542 9.66 -0.409578 6.96651 1 1
156 1 5.34857 12.48 0 0 0 0 1 3
157 1 4.45714 11.5886 0.891429 0 0 0 1 2
158 1 4.47934 13.3239 2.67331 -1.94557 -1.88739 0.890576 1 1
159 1 6.23039 11.6002 2.73192 1.23606 1.72039 -7.98816 1 1
160 1 6.24 13.3714 0.891429 0 0 0 1 2
161 1 7.13143 10.6971 0 0 0 0 1 3
162 1 7.17032 12.5235 1.83994 -4.84003 1.33537 6.76764 1 1
163 1 8.90836 10.7039 1.76837 2.85531 1.72291 2.98187 1 1
164 1 8.91429 12.48 0 0 0 0 1 3
165 1 8.02286 11.5886 0.891429 0 0 0 1 2
166 1 8.06705 13.3716 2.68831 -0.749552 3.3536 10.4262 1 1
167 1 9.80948 11.5871 2.69951 1.35087 -6.20411 6.02382 1 1
168 1 9.80572 13.3714 0.891429 0 0 0 1 2
169 1 10.6971 10.6971 0 0 0 0 1 3
170 1 10.7107 12.4747 1.86099 -10.0185 0.678807 5.59431 1 1
171 1 12.5035 10.6798 1.79775 0.950295 0.0148601 2.4457 1 1
172 1 12.48 12.48 0 0 0 0 1 3
173 1 11.5886 11.5886 0.891429 0 0 0 1 2
174 1 11.5999 13.3599 2.74547 1.56343 4.90234 6.56353 1 1
175 1 13.399 11.6181 2.70511 4.2165 3.5924 6.45702 1 1
176 1 13.3714 13.3714 0.891429 0 0 0 1 2
177 1 14.2629 10.6971 0 0 0 0 1 3
178 1 14.2593 12.4584 1.77008 5.68594 -3.5886 -0.895887 1 1
179 1 16.0247 10.6879 1.80248 -3.97821 -0.301546 -3.95296 1 1
180 1 16.0457 12.48 0 0 0 0 1 3
181 1 15.1543 11.5886 0.891429 0 0 0 1 2
182 1 15.144 13.3748 2.69493 0.0764691 6.61812 6.16809 1 1
183 1 16.9249 11.6116 2.67748 1.60238 5.0128 5.33565 1 1
184 1 16.9371 13.3714 0.891429 0 0 0 1 2
185 1 17.8286 10.6971 0 0 0 0 1 3
186 1 17.8263 12.4831 1.81015 -8.90005 1.70946 2.05618 1 1
187 1 19.593 10.7155 1.78311 0.779129 1.18541 0.693776 1 1
188 1 19.6114 12.48 0 0 0 0 1 3
189 1 18.72 11.5886 0.891429 0 0 0 1 2
190 1 18.7135 13.4197 2.7421 6.0319 -2.94481 -1.25112 1 1
191 1 20.4851 11.5644 2.69715 -2.03701 2.87782 -1.66271 1 1
192 1 20.5029 13.3714 0.891429 0 0 0 1 2
193 1 0 14.2629 0 0 0 0 1 3
194 1 0.0308763 16.0406 1.84598 1.58929 -4.93586 6.03259 1 1
195 1 1.76532 14.2858 1.80673 6.37452 -6.13076 -1.64271 1 1
196 1 1.78286 16.0457 0 0 0 0 1 3
197 1 0.891429 15.1543 0.891429 0 0 0 1 2
198 1 0.914192 16.9576 2.73122 -10.4317 0.245157 0.56601 1 1
199 1 2.65602 15.1491 2.71715 -5.28537 -0.546574 -1.54279 1 1
200 1 2.67429 16.9371 0.891429 0 0 0 1 2
201 1 3.56572 14.2629 0 0 0 0 1 3
202 1 3.50385 16.0528 1.76523 0.729029 7.14312 -1.14734 1 1
203 1 5.30094 14.2591 1.76179 -2.12121 -3.49897 5.63394 1 1
204 1 5.34857 16.0457 0 0 0 0 1 3
205 1 4.45714 15.1543 0.891429 0 0 0 1 2
206 1 4.41922 16.9231 2.64679 0.961884 0.785435 4.07025 1 1
207 1 6.22105 15.2 2.66643 -10.4378 3.07847 2.77813 1 1
208 1 6.24 16.9371 0.891429 0 0 0 1 2
209 1 7.13143 14.2629 0 0 0 0 1 3
210 1 7.13105 16.0289 1.79848 -0.476296 0.254718 -0.865109 1 1
211 1 8.95382 14.2721 1.77354 -3.33641 3.24095 0.090167 1 1
212 1 8.91429 16.0457 0 0 0 0 1 3
213 1 8.02286 15.1543 0.891429 0 0 0 1 2
214 1 8.043 16.9189 2.67782 0.403528 6.49461 3.79943 1 1
215 1 9.84635 15.1449 2.6932 -5.95547 -0.910783 0.929789 1 1
216 1 9.80572 16.9371 0.891429 0 0 0 1 2
217 1 10.6971 14.2629 0 0 0 0 1 3
218 1 10.7287 16.0377 1.74469 4.31966 -6.58395 -0.510881 1 1
219 1 12.4743 14.2566 1.82549 1.64651 1.5511 -6.73371 1 1
220 1 12.48 16.0457 0 0 0 0 1 3
221 1 11.5886 15.1543 0.891429 0 0 0 1 2
222 1 11.593 16.8951 2.68965 -2.61554 -0.726162 -2.22363 1 1
223 1 13.367 15.1881 2.70302 1.83031 -5.80932 1.89795 1 1
224 1 13.3714 16.9371 0.891429 0 0 0 1 2
225 1 14.2629 14.2629 0 0 0 0 1 3
226 1 14.2686 16.0396 1.81426 -1.67088 -1.48684 -2.55002 1 1
227 1 16.058 14.3007 1.77152 -0.439618 -3.6953 -5.41447 1 1
228 1 16.0457 16.0457 0 0 0 0 1 3
229 1 15.1543 15.1543 0.891429 0 0 0 1 2
230 1 15.1454 16.9857 2.65944 8.72992 -6.06646 -0.278544 1 1
231 1 16.943 15.1464 2.67491 5.14242 1.63029 1.52706 1 1
232 1 16.9371 16.9371 0.891429 0 0 0 1 2
233 1 17.8286 14.2629 0 0 0 0 1 3
234 1 17.8923 16.0284 1.7963 2.12287 3.97535 5.38701 1 1
235 1 19.5894 14.241 1.83005 0.780393 4.31995 -5.55181 1 1
236 1 19.6114 16.0457 0 0 0 0 1 3
237 1 18.72 15.1543 0.891429 0 0 0 1 2
238 1 18.7723 16.9231 2.72814 -7.78867 4.36491 9.64653 1 1
239 1 20.5248 15.1754 2.7451 2.99116 -8.55835 9.94412 1 1
240 1 20.5029 16.9371 0.891429 0 0 0 1 2
241 1 0 17.8286 0 0 0 0 1 3
242 1 0.00518002 19.6104 1.83201 1.00025 -10.0512 1.07718 1 1
243 1 1.81209 17.8616 1.74668 -5.21537 2.2742 -2.57825 1 1
244 1 1.78286 19.6114 0 0 0 0 1 3
245 1 0.891429 18.72 0.891429 0 0 0 1 2
246 1 0.916487 20.5229 2.67955 -9.84009 1.40655 1.67626 1 1
247 1 2.68429 18.7181 2.67513 1.80136 2.62509 1.78471 1 1
248 1 2.67429 20.5029 0.891429 0 0 0 1 2
249 1 3.56572 17.8286 0 0 0 0 1 3
250 1 3.55373 19.6135 1.82425 -1.21443 -1.48017 -1.44784 1 1
251 1 5.32767 17.785 1.76429 -2.95651 -1.63207 -0.718858 1 1
252 1 5.34857 19.6114 0 0 0 0 1 3
253 1 4.45714 18.72 0.891429 0 0 0 1 2
254 1 4.48479 20.5148 2.64824 16.4699 -1.13492 3.21196 1 1
255 1 6.21623 18.737 2.68664 -2.41531 4.25054 -6.11051 1 1
256 1 6.24 20.5029 0.891429 0 0 0 1 2
257 1 7.13143 17.8286 0 0 0 0 1 3
258 1 7.10921 19.6222 1.80458 -8.51425 1.45165 -1.39208 1 1
259 1 8.93832 17.8027 1.7356 -5.85065 -1.58041 10.3368 1 1
260 1 8.91429 19.6114 0 0 0 0 1 3
261 1 8.02286 18.72 0.891429 0 0 0 1 2
262 1 7.97146 20.5047 2.70928 13.4594 1.57802 -3.98281 1 1
263 1 9.77818 18.6947 2.66706 -1.00862 -3.91513 2.55774 1 1
264 1 9.80572 20.5029 0.891429 0 0 0 1 2
265 1 10.6971 17.8286 0 0 0 0 1 3
266 1 10.6819 19.6152 1.77868 -8.08432 7.07628 -0.952535 1 1
267 1 12.4727 17.7614 1.79287 -7.92233 0.856972 1.00211 1 1
268 1 12.48 19.6114 0 0 0 0 1 3
269 1 11.5886 18.72 0.891429 0 0 0 1 2
270 1 11.6112 20.4688 2.65162 -4.50197 0.439511 -9.41869 1 1
271 1 13.4008 18.6885 2.70345 2.07066 -0.167902 -0.834336 1 1
272 1 13.3714 20.5029 0.891429 0 0 0 1 2
273 1 14.2629 17.8286 0 0 0 0 1 3
274 1 14.2621 19.6124 1.79664 -3.70775 -4.56553 -3.31004 1 1
275 1 16.03 17.8519 1.78964 2.19933 3.70123 -4.7192 1 1
276 1 16.0457 19.6114 0 0 0 0 1 3
277 1 15.1543 18.72 0.891429 0 0 0 1 2
278 1 15.1782 20.4519 2.70207 3.63846 5.47683 -0.980419 1 1
279 1 16.9508 18.7056 2.69533 5.16315 2.80239 -3.12427 1 1
280 1 16.9371 20.5029 0.891429 0 0 0 1 2
281 1 17.8286 17.8286 0 0 0 0 1 3
282 1 17.8426 19.6077 1.80053 -0.543171 -4.37429 2.99349 1 1
283 1 19.6483 17.7943 1.80417 0.151878 -6.29615 3.71156 1 1
284 1 19.6114 19.6114 0 0 0 0 1 3
285 1 18.72 18.72 0.891429 0 0 0 1 2
286 1 18.7386 20.4836 2.71549 -7.38371 -0.92457 1.80357 1 1
287 1 20.5095 18.7509 2.69715 -1.13795 2.47049 5.94416 1 1
288 1 20.5029 20.5029 0.891429 0 0 0 1 2
289 1 0.00874817 0.0495047 3.58839 3.14994 -0.5025 -7.22401 1 1
290 1 0.00182316 1.77638 5.44754 -1.5948 0.585851 -0.138717 1 1
291 1 1.80342 0.0329439 5.42643 0.651853 7.00072 -0.768416 1 1
292 1 1.79506 1.77461 3.60985 -4.36786 -12.5079 7.33138 1 1
293 1 0.903773 0.866643 4.52485 3.06522 -6.3332 0.0964253 1 1
294 1 0.885894 2.7003 6.29932 2.51259 5.20927 7.28206 1 1
295 1 2.68355 0.925176 6.32183 9.73273 -1.10814 2.35381 1 1
296 1 2.6962 2.67469 4.47623 3.68093 7.37973 -6.38326 1 1
297 1 3.5951 0.0076673 3.62413 6.15917 -0.904601 9.75248 1 1
298 1 3.56721 1.80299 5.40436 -3.40731 3.85493 3.51836 1 1
299 1 5.36513 0.0330194 5.36577 4.13701 5.32551 6.77553 1 1
300 1 5.34297 1.79383 3.60298 -6.20248 5.86704 -1.7216 1 1
301 1 4.4164 0.929716 4.50285 4.08888 -4.4131 -9.0645 1 1
302 1 4.50302 2.68975 6.31418 1.13774 10.6778 -4.52873 1 1
303 1 6.19344 0.890014 6.29271 0.785127 1.59545 2.64961 1 1
304 1 6.23089 2.71495 4.51774 1.95047 -2.60901 -6.61013 1 1
305 1 7.10177 0.0218342 3.60782 2.52326 -3.9908 9.80658 1 1
306 1 7.14684 1.77955 5.41702 1.45288 5.73974 1.55392 1 1
307 1 8.8898 21.3462 5.40008 6.53001 -0.696229 -1.98798 1 1
308 1 8.93867 1.81742 3.64194 0.51362 -4.59168 9.20686 1 1
309 1 8.03284 0.909359 4.54569 -4.57095 0.00799471 -0.657329 1 1
310 1 7.99369 2.6902 6.29415 -8.22673 2.81274 -0.976423 1 1
311 1 9.7947 0.88836 6.28406 6.03944 -2.98214 1.2995 1 1
312 1 9.82452 2.69664 4.53739 4.92312 0.345654 4.74612 1 1
313 1 10.7055 21.3654 3.60815 4.88072 0.675815 1.895 1 1
314 1 10.7154 1.75212 5.43317 0.02303 3.88008 -0.692181 1 1
315 1 12.486 0.0103006 5.41459 6.26709 2.05646 2.45774 1 1
316 1 12.5069 1.78357 3.59391 5.48045 1.5485 3.67369 1 1
317 1 11.6022 0.892192 4.5184 7.98267 -7.17169 6.54014 1 1
318 1 11.5777 2.6358 6.2613 3.32295 1.1127 -4.83454 1 1
319 1 13.4102 0.847071 6.2559 -0.999036 6.7003 -3.70496 1 1
320 1 13.3484 2.65701 4.49984 2.44946 1.48836 -0.87708 1 1
321 1 14.2874 21.3783 3.59728 -7.04377 2.55019 1.23378 1 1
322 1 14.2501 1.7746 5.35716 -9.2265 -3.35102 6.61561 1 1
323 1 16.0859 0.0160482 5.39788 6.14306 1.03328 7.8607 1 1
324 1 15.9981 1.82915 3.59804 1.97101 -5.68645 -2.50863 1 1
325 1 15.1564 0.883541 4.46607 0.224075 -1.82687 3.82046 1 1
326 1 15.1516 2.67644 6.28543 3.28531 1.99028 -5.46265 1 1
327 1 16.9426 0.930325 6.30639 -0.469319 6.25927 -0.419133 1 1
328 1 16.9458 2.71992 4.48412 -0.89049 -2.98324 -2.29658 1 1
329 1 17.8289 0.0171014 3.62633 2.14494 -4.37206 0.421312 1 1
330 1 17.7962 1.85434 5.39839 0.135271 12.2171 5.07751 1 1
331 1 19.5927 0.0182423 5.3935 1.04718 -0.832943 9.97832 1 1
332 1 19.5916 1.80668 3.61826 -0.739853 -1.57707 10.1467 1 1
333 1 18.6848 0.902037 4.44256 1.01281 6.78188 -3.27807 1 1
334 1 18.7062 2.68141 6.32044 -5.14612 -0.932141 1.80303 1 1
335 1 20.4761 0.903941 6.31568 5.38617 4.70881 -6.47537 1 1
336 1 20.5147 2.68498 4.52567 1.37438 2.10068 0.328005 1 1
337 1 0.00171952 3.56751 3.62401 -7.17088 4.31751 -0.106913 1 1
338 1 0.0168411 5.32932 5.40219 0.622787 5.19541 4.26237 1 1
339 1 1.8191 3.56452 5.4065 -3.29773 1.66 0.765463 1 1
340 1 1.81608 5.36132 3.60866 2.27839 6.03336 0.213479 1 1
341 1 0.927477 4.48641 4.51566 -4.81377 -0.325548 3.2238 1 1
342 1 0.919437 6.2599 6.3171 1.05525 6.1019 -3.96136 1 1
343 1 2.71446 4.46009 6.2957 3.74617 0.670656 -0.441681 1 1
344 1 2.69536 6.21474 4.50667 -7.05451 -2.54688 -0.693916 1 1
345 1 3.55152 3.57668 3.52645 -2.33743 -0.13648 2.58874 1 1
346 1 3.55903 5.34092 5.36276 -1.92623 -2.47886 -4.8028 1 1
347 1 5.36156 3.57606 5.40586 2.43167 -1.17301 -4.15044 1 1
348 1 5.3856 5.34849 3.59406 -4.48826 1.6733 -0.841289 1 1
349 1 4.45776 4.4445 4.43553 -3.46792 -2.82316 -0.795484 1 1
350 1 4.51783 6.23835 6.25965 -4.06042 -7.42093 -1.6823 1 1
351 1 6.25308 4.45003 6.28792 0.506027 -1.35191 8.39872 1 1
352 1 6.28428 6.28377 4.47446 5.12979 3.3461 0.477022 1 1
353 1 7.15345 3.55583 3.63603 -4.3695 0.277723 1.8755 1 1
354 1 7.12658 5.36612 5.42373 -11.6908 0.257638 1.14892 1 1
355 1 8.90542 3.57881 5.41647 -3.6054 -4.33238 4.14448 1 1
356 1 8.93599 5.33983 3.60129 -0.159565 -1.56432 -5.62777 1 1
357 1 8.02482 4.45451 4.54044 10.4927 -2.12626 -3.77226 1 1
358 1 8.03119 6.26416 6.29466 2.93683 -3.53798 0.618322 1 1
359 1 9.8058 4.46284 6.28712 3.15049 2.21953 -1.08211 1 1
360 1 9.82264 6.24944 4.51004 9.24157 -3.6925 7.80048 1 1
361 1 10.675 3.59094 3.58968 -1.73318 4.69021 3.96087 1 1
362 1 10.6984 5.33396 5.41204 -1.84541 2.84844 -1.66942 1 1
363 1 12.4847 3.56352 5.36129 -3.98558 0.294208 -3.65456 1 1
364 1 12.4883 5.34933 3.64631 1.24128 -15.6256 -9.16363 1 1
365 1 11.6125 4.49642 4.49305 0.328608 -0.602009 3.59535 1 1
366 1 11.5968 6.27371 6.30862 2.21042 -1.00479 2.11227 1 1
367 1 13.3008 4.42508 6.29672 1.52898 -0.746455 -2.64671 1 1
368 1 13.3453 6.24253 4.52882 -4.1808 5.35245 1.2278 1 1
369 1 14.2634 3.55253 3.58843 -5.67865 7.07388 -2.43081 1 1
370 1 14.2166 5.31287 5.41525 -2.01228 0.305817 -2.64389 1 1
371 1 15.9867 3.58307 5.36097 -5.90034 1.69295 -3.44801 1 1
372 1 16.0418 5.3569 3.59702 -5.35608 8.89252 2.94792 1 1
373 1 15.0918 4.46455 4.47568 8.56957 2.79481 -1.60851 1 1
374 1 15.0859 6.1938 6.22367 -3.81586 -2.26743 -1.93348 1 1
375 1 16.8879 4.43606 6.26413 -1.12885 -12.1927 1.80277 1 1
376 1 16.9209 6.21794 4.50007 3.38531 -4.05821 -2.20397 1 1
377 1 17.8215 3.57661 3.59119 -3.50491 1.78503 11.3303 1 1
378 1 17.8363 5.31809 5.40422 -2.0229 5.31731 -0.0199695 1 1
379 1 19.628 3.61068 5.42793 1.82237 7.90944 -1.55121 1 1
380 1 19.5807 5.36957 3.61117 1.09855 -1.7804 -0.0258188 1 1
381 1 18.6986 4.42362 4.49804 -2.35505 1.63269 11.1606 1 1
382 1 18.7183 6.24896 6.31663 -2.53708 0.999347 -2.2821 1 1
383 1 20.4841 4.49648 6.24849 0.101571 9.8797 2.36409 1 1
384 1 20.5317 6.27133 4.52439 -11.7326 -9.53892 -5.68451 1 1
385 1 0.0332388 7.15547 3.58098 1.1395 -5.52166 -2.79457 1 1
386 1 0.0515315 8.91928 5.36312 2.26262 1.64888 -1.21383 1 1
387 1 1.84084 7.16633 5.4357 -0.99818 -1.77849 2.74991 1 1
388 1 1.80201 8.9459 3.58597 -1.33622 -0.370387 -2.16523 1 1
389 1 0.955211 8.03508 4.51163 -2.2353 -3.77212 -1.86548 1 1
390 1 0.921617 9.82999 6.27197 3.15547 -0.82932 3.57441 1 1
391 1 2.69767 8.06476 6.27555 1.65511 3.16757 -3.22406 1 1
392 1 2.77001 9.81342 4.48279 1.90388 2.57865 -1.35891 1 1
393 1 3.60504 7.1376 3.55733 -7.75693 -5.27624 -0.22464 1 1
394 1 3.64157 8.89715 5.37404 5.77821 1.80468 4.24333 1 1
395 1 5.41734 7.12793 5.39655 -4.41248 2.25104 0.184002 1 1
396 1 5.38246 8.93445 3.56237 -2.86684 7.60658 3.68269 1 1
397 1 4.53433 8.06381 4.52054 6.31875 -2.89523 -1.92526 1 1
398 1 4.48759 9.82515 6.25411 0.069261 -0.664083 -7.60071 1 1
399 1 6.26014 8.0126 6.29985 -1.13048 2.06026 -2.12818 1 1
400 1 6.24711 9.84961 4.4779 -2.08072 -4.41656 0.643681 1 1
401 1 7.10669 7.1575 3.57831 -1.55864 -1.27408 2.04934 1 1
402 1 7.15616 8.95919 5.40214 6.94396 -0.828771 -0.463984 1 1
403 1 8.92332 7.15108 5.41705 -0.80576 3.14851 5.56412 1 1
404 1 8.9039 8.91726 3.60601 -2.5557 -0.761632 -4.04718 1 1
405 1 7.99184 8.02458 4.4752 1.63162 3.75418 2.02298 1 1
406 1 8.00575 9.79247 6.30143 1.40875 -5.51722 -7.49941 1 1
407 1 9.78933 8.0507 6.27281 -1.41425 9.00573 7.87257 1 1
408 1 9.78081 9.80569 4.51919 -1.35028 2.77766 -2.37917 1 1
409 1 10.7266 7.1331 3.60343 -0.614053 -0.590566 1.14195 1 1
410 1 10.6876 8.94358 5.39804 2.45065 3.02697 1.38288 1 1
411 1 12.4824 7.14221 5.43245 9.49953 5.92568 2.31344 1 1
412 1 12.4892 8.90578 3.63817 4.0212 2.05349 1.98201 1 1
413 1 11.6118 8.03617 4.54659 -3.42457 -2.56491 5.24672 1 1
414 1 11.5881 9.83139 6.3045 -1.55417 4.12499 4.03932 1 1
415 1 13.3407 8.05102 6.2965 0.968981 -0.842649 0.400585 1 1
416 1 13.4132 9.85784 4.50445 1.73355 -1.96422 3.71578 1 1
417 1 14.2176 7.14027 3.59795 -9.2113 4.22987 1.26387 1 1
418 1 14.2546 8.90839 5.41765 2.33519 5.75888 -6.86747 1 1
419 1 16.0371 7.09207 5.36778 -6.5642 4.2805 3.80851 1 1
420 1 16.0515 8.90127 3.60208 -9.65086 4.85095 -3.13983 1 1
421 1 15.135 7.9997 4.5181 2.86654 3.5444 0.463659 1 1
422 1 15.1767 9.75998 6.30787 6.39792 -4.41587 -1.50963 1 1
423 1 16.9164 8.00524 6.26086 -1.24983 3.57983 2.79928 1 1
424 1 16.9134 9.81489 4.4735 -0.0353043 0.00770094 6.717 1 1
425 1 17.7647 7.18502 3.65073 0.957081 -0.466424 -0.250641 1 1
426 1 17.8408 8.86546 5.3769 -1.59435 -6.1881 6.74532 1 1
427 1 19.6142 7.07289 5.39443 -5.61637 5.70712 1.23468 1 1
428 1 19.6482 8.8934 3.61682 -1.24102 4.63608 -4.77318 1 1
429 1 18.7583 8.00936 4.47547 -1.13799 5.28991 3.91533 1 1
430 1 18.7189 9.78346 6.26543 2.38529 0.0567132 7.26723 1 1
431 1 20.5442 8.02899 6.27134 2.22375 -2.68231 2.97555 1 1
432 1 20.5176 9.77707 4.50518 5.3165 -8.66188 5.15579 1 1
433 1 21.3721 10.6717 3.61036 -0.258654 1.44313 1.42599 1 1
434 1 0.00809556 12.485 5.39597 7.13018 -5.20844 4.75814 1 1
435 1 1.76396 10.671 5.37716 0.403393 7.785 8.46328 1 1
436 1 1.81068 12.4521 3.56187 5.86253 6.58179 2.95884 1 1
437 1 0.880334 11.573 4.45606 0.373701 2.46579 8.22622 1 1
438 1 0.903847 13.3471 6.29185 4.27512 -2.73801 3.7738 1 1
439 1 2.7038 11.5742 6.28554 5.03766 -1.15359 5.03512 1 1
440 1 2.67767 13.3846 4.51411 -10.4231 9.2506 3.62027 1 1
441 1 3.61332 10.6764 3.57969 6.63069 0.816978 -2.66905 1 1
442 1 3.57633 12.4578 5.3959 -0.505102 7.46653 2.02256 1 1
443 1 5.3981 10.7293 5.35895 -5.95405 0.406522 7.0927 1 1
444 1 5.3706 12.534 3.60917 2.85704 -0.750745 7.71389 1 1
445 1 4.48957 11.5925 4.48151 -8.11079 7.14506 -2.62071 1 1
446 1 4.51879 13.3745 6.29903 -1.70126 -5.95775 -4.50518 1 1
447 1 6.23359 11.6199 6.24895 8.49925 -6.61186 8.84507 1 1
448 1 6.26266 13.427 4.45074 4.22227 4.15851 -3.26641 1 1
449 1 7.17249 10.714 3.57456 0.841329 -9.37989 2.41043 1 1
450 1 7.15104 12.4643 5.36011 -2.21111 1.00052 -5.47064 1 1
451 1 8.91852 10.7262 5.4381 -3.60752 1.58909 0.105982 1 1
452 1 8.93408 12.5059 3.62233 2.79189 4.09562 1.47117 1 1
453 1 8.06189 11.6146 4.49129 5.98972 3.68049 4.04836 1 1
454 1 8.03293 13.3601 6.26936 1.62764 -2.33563 2.87771 1 1
455 1 9.82786 11.5935 6.27913 -0.256856 5.02115 -3.21549 1 1
456 1 9.78182 13.3744 4.50317 -6.75085 3.00377 0.205229 1 1
457 1 10.6909 10.6577 3.59002 -0.304238 0.873631 -7.54614 1 1
458 1 10.7315 12.5043 5.40518 -2.1819 -0.128645 2.55514 1 1
459 1 12.478 10.7302 5.34412 9.08337 -2.69431 -0.338283 1 1
460 1 12.5081 12.5257 3.60926 1.87602 0.336748 2.37024 1 1
461 1 11.5867 11.5897 4.48898 -0.861167 -1.67245 3.83105 1 1
462 1 11.6317 13.3506 6.28439 1.95058 -2.99024 -0.557761 1 1
463 1 13.4058 11.5522 6.26627 -0.872824 7.76249 1.09872 1 1
464 1 13.4015 13.382 4.45486 -3.75901 1.81745 -3.06183 1 1
465 1 14.3075 10.7267 3.6342 -5.65654 0.920286 2.72878 1 1
466 1 14.2913 12.4724 5.35683 -3.91351 8.24097 -4.00442 1 1
467 1 16.0515 10.6948 5.40597 0.789555 -5.51963 -2.14135 1 1
468 1 16.0178 12.4494 3.59619 0.205333 2.23544 4.69338 1 1
469 1 15.1657 11.5922 4.50673 -3.97874 4.07325 3.72086 1 1
470 1 15.1641 13.3813 6.26608 -12.9256 2.11045 -2.96358 1 1
471 1 16.9354 11.6113 6.29472 0.890933 -3.01886 -11.9999 1 1
472 1 16.9742 13.4195 4.45517 0.896384 -1.0553 1.52758 1 1
473 1 17.8293 10.7282 3.60984 -3.21236 -1.5949 -5.78541 1 1
474 1 17.795 12.4853 5.39417 -2.74259 -4.21252 -0.301302 1 1
475 1 19.6121 10.649 5.40579 6.72762 -2.38461 2.50554 1 1
476 1 19.6371 12.4953 3.63985 2.39161 -3.13989 -4.63371 1 1
477 1 18.7373 11.5781 4.50027 1.28374 -0.406137 3.52685 1 1
478 1 18.6841 13.4049 6.26293 -5.01885 -3.19202 -9.63063 1 1
479 1 20.496 11.5997 6.29253 0.723985 0.999783 5.02279 1 1
480 1 20.55 13.4109 4.50499 2.20033 -0.0402053 0.436361 1 1
481 1 0.0132625 14.2855 3.62702 1.11697 3.01761 0.0866605 1 1
482 1 21.3946 16.0907 5.42193 3.68353 -4.86262 -9.02416 1 1
483 1 1.80666 14.283 5.39067 0.963447 2.45648 -5.7455 1 1
484 1 1.79089 16.0549 3.61607 6.56492 -6.41593 7.67035 1 1
485 1 0.934401 15.233 4.48701 -0.994489 4.46246 -0.923861 1 1
486 1 0.904366 16.8968 6.31715 0.843933 -6.40061 -0.491141 1 1
487 1 2.68256 15.1168 6.27936 -6.00049 -2.24386 -3.77697 1 1
488 1 2.73589 16.9443 4.47921 2.52288 0.881708 -1.1922 1 1
489 1 3.58985 14.2577 3.61884 2.17426 -7.56607 -2.71874 1 1
490 1 3.57945 16.0517 5.40224 -1.57227 0.657144 8.19493 1 1
491 1 5.37844 14.3129 5.34811 3.92758 2.12156 4.24639 1 1
492 1 5.35229 16.0995 3.59982 2.7621 -3.97482 0.432656 1 1
493 1 4.48802 15.1959 4.46526 8.77943 -3.01553 6.40347 1 1
494 1 4.51496 16.9847 6.29036 -7.611 9.16387 -2.28242 1 1
495 1 6.30416 15.2134 6.28977 -5.32695 0.696706 -0.493461 1 1
496 1 6.22733 16.9629 4.46107 -5.9733 0.451972 7.06417 1 1
497 1 7.12969 14.2619 3.54691 1.96932 3.19575 6.29369 1 1
498 1 7.1512 16.0796 5.3341 -2.5221 2.30118 0.738593 1 1
499 1 8.88203 14.2632 5.35632 3.85953 6.47649 4.66588 1 1
500 1 8.92289 16.0463 3.51688 0.781886 -6.8079 8.01143 1 1
501 1 8.00927 15.1528 4.44117 -5.26928 -4.17548 -5.11007 1 1
502 1 8.00628 16.9877 6.26209 1.28354 4.27562 -0.673629 1 1
503 1 9.80984 15.14 6.23525 -0.718421 5.8912 -0.101302 1 1
504 1 9.77388 16.9052 4.44565 3.02709 5.21285 -5.69911 1 1
505 1 10.6745 14.2321 3.61153 2.56912 5.38514 2.90208 1 1
506 1 10.6617 16.0154 5.34075 10.9424 -2.56907 2.94234 1 1
507 1 12.5402 14.2685 5.36489 4.58199 1.85258 0.323009 1 1
508 1 12.4712 16.071 3.63258 -1.28287 -1.00294 6.6163 1 1
509 1 11.6215 15.1553 4.45778 -5.32457 -1.65061 4.08986 1 1
510 1 11.5565 16.9301 6.21565 3.04891 0.527228 4.02307 1 1
511 1 13.4388 15.1689 6.27589 5.6684 5.84148 -3.80144 1 1
512 1 13.3666 16.9536 4.49697 2.36641 -7.32918 -1.63132 1 1
513 1 14.2974 14.2633 3.6224 3.45268 9.39336 12.6448 1 1
514 1 14.3245 16.0557 5.37251 -6.40776 -0.327991 0.264945 1 1
515 1 16.0874 14.2975 5.36954 7.78155 -2.37224 -5.44989 1 1
516 1 16.0802 16.0742 3.57286 -2.29751 -3.24798 3.96195 1 1
517 1 15.1742 15.1788 4.44131 -4.53428 5.37657 5.51688 1 1
518 1 15.1693 16.9727 6.30497 4.5908 2.61033 8.40448 1 1
519 1 16.9685 15.2045 6.28842 7.53135 -6.37951 -4.06732 1 1
520 1 16.9229 16.9357 4.48268 3.70595 -6.57791 -2.20252 1 1
521 1 17.8107 14.311 3.60014 7.43853 -6.65784 -6.03844 1 1
522 1 17.8221 16.0939 5.39498 5.60593 9.08828 -2.35015 1 1
523 1 19.612 14.2681 5.37343 4.78604 6.44715 0.176581 1 1
524 1 19.6154 16.0532 3.63567 -8.24419 -2.31097 5.26829 1 1
525 1 18.721 15.1911 4.51409 -3.05424 5.54621 -5.86271 1 1
526 1 18.716 16.9353 6.31661 4.76762 3.37675 4.17913 1 1
527 1 20.4975 15.1128 6.25483 4.13506 5.76609 -3.55009 1 1
528 1 20.5353 16.9347 4.53504 -9.13853 -3.66737 -0.429224 1 1
529 1 0.0175613 17.8634 3.5817 0.0986741 3.2516 5.54413 1 1
530 1 0.0448391 19.6374 5.42489 -0.269729 -2.82459 9.02924 1 1
531 1 1.78045 17.8171 5.36182 5.76989 2.93462 0.0518162 1 1
532 1 1.793 19.6245 3.57919 -0.533542 -9.24415 -2.97607 1 1
533 1 0.946061 18.7217 4.50293 -2.13122 -1.59598 4.75876 1 1
534 1 0.971769 20.5149 6.28794 -2.45671 0.493025 -2.35609 1 1
535 1 2.66151 18.7083 6.23971 1.44708 3.69686 4.35844 1 1
536 1 2.6589 20.4834 4.49409 3.83098 -5.76083 -2.06148 1 1
537 1 3.59239 17.8334 3.55724 2.23482 -0.624084 2.17766 1 1
538 1 3.56871 19.5809 5.35891 0.579211 -3.89552 -5.915 1 1
539 1 5.33992 17.9025 5.36694 -4.98979 0.00944654 -1.68754 1 1
540 1 5.31994 19.6519 3.54421 -1.09362 -3.38987 -0.905553 1 1
541 1 4.46124 18.7616 4.44546 2.48484 -4.35888 1.05797 1 1
542 1 4.45898 20.5094 6.25826 0.666742 1.04708 -6.13861 1 1
543 1 6.21694 18.7454 6.26118 4.10088 -1.17503 -3.18486 1 1
544 1 6.16148 20.507 4.44029 -5.37257 8.16192 3.27615 1 1
545 1 7.11825 17.8435 3.57104 -8.36674 4.62162 -2.57133 1 1
546 1 7.06957 19.5768 5.39842 4.02256 -2.9493 4.15358 1 1
547 1 8.88079 17.8246 5.36078 -0.830002 2.35048 -5.34876 1 1
548 1 8.86086 19.5897 3.57524 2.0847 -6.00385 -8.42526 1 1
549 1 7.99632 18.7179 4.4674 0.694541 -2.41874 -6.68428 1 1
550 1 7.94522 20.5084 6.26182 4.3481 3.10153 -0.581381 1 1
551 1 9.79011 18.7131 6.23466 -0.236302 -5.28079 2.62648 1 1
552 1 9.75111 20.4906 4.48466 0.948777 -2.91801 -3.3763 1 1
553 1 10.678 17.8081 3.55209 -5.27517 -5.64814 5.52932 1 1
554 1 10.6849 19.6295 5.39671 -3.51133 -2.16999 2.51835 1 1
555 1 12.4589 17.8161 5.34532 -0.624444 -3.94106 -5.17639 1 1
556 1 12.4357 19.6087 3.5592 2.90814 4.72428 -0.92856 1 1