ITEM: TIMESTEP
650
ITEM: NUMBER OF ATOMS
2953
ITEM: BOX BOUNDS pp pp mm
0.0000000000000000e+00 2.1394294200000001e+01
0.0000000000000000e+00 2.1394294200000001e+01
-4.4571446250000002e-01 5.3485735500000004e+01
ITEM: ATOMS id type x y z vx vy vz v_is_diamond c_structure_type
1 1 0 0 0 0 0 0 1 3
2 1 21.3577 1.8158 1.78428 3.64532 -5.98047 7.90551 1 1
3 1 1.7763 0.0163537 1.77955 2.88476 0.537651 -5.20517 1 1
4 1 1.78286 1.78286 0 0 0 0 1 3
5 1 0.891429 0.891429 0.891429 0 0 0 1 2
6 1 0.895104 2.64588 2.73499 -5.52632 -0.786301 2.53807 1 1
7 1 2.69458 0.876476 2.68792 -6.75964 -2.04229 4.03479 1 1
8 1 2.67429 2.67429 0.891429 0 0 0 1 2
9 1 3.56572 0 0 0 0 0 1 3
10 1 3.55501 1.78266 1.79622 0.137193 -6.54297 -1.65704 1 1
11 1 5.36883 0.0223049 1.74847 1.88604 -7.65973 -5.53338 1 1
12 1 5.34857 1.78286 0 0 0 0 1 3
13 1 4.45714 0.891429 0.891429 0 0 0 1 2
14 1 4.44034 2.72647 2.63531 5.11646 3.04779 -1.29225 1 1
15 1 6.22385 0.903124 2.72254 8.39537 -5.5191 0.867451 1 1
16 1 6.24 2.67429 0.891429 0 0 0 1 2
17 1 7.13143 0 0 0 0 0 1 3
18 1 7.12647 1.8039 1.82631 11.4646 -2.38897 2.91437 1 1
19 1 8.90279 21.3602 1.82656 0.0438063 5.40221 7.78556 1 1
20 1 8.91429 1.78286 0 0 0 0 1 3
21 1 8.02286 0.891429 0.891429 0 0 0 1 2
22 1 8.03719 2.68906 2.72998 5.66051 2.0129 6.03042 1 1
23 1 9.81414 0.894726 2.68174 0.92157 2.18525 8.1247 1 1
24 1 9.80572 2.67429 0.891429 0 0 0 1 2
25 1 10.6971 0 0 0 0 0 1 3
26 1 10.6931 1.81054 1.79367 4.64495 0.844571 1.24266 1 1
27 1 12.5121 0.000987076 1.78363 -2.30643 0.817619 -0.757376 1 1
28 1 12.48 1.78286 0 0 0 0 1 3
29 1 11.5886 0.891429 0.891429 0 0 0 1 2
30 1 11.6406 2.69791 2.68631 1.25449 -3.0595 0.770769 1 1
31 1 13.3522 0.902837 2.64972 -6.34274 -0.701251 -11.4223 1 1
32 1 13.3714 2.67429 0.891429 0 0 0 1 2
33 1 14.2629 0 0 0 0 0 1 3
34 1 14.2887 1.76759 1.7615 3.41713 7.85828 -1.56347 1 1
35 1 16.0666 21.3771 1.77311 1.20632 2.30598 -4.084 1 1
36 1 16.0457 1.78286 0 0 0 0 1 3
37 1 15.1543 0.891429 0.891429 0 0 0 1 2
38 1 15.112 2.65679 2.67561 0.836375 2.67792 -2.60794 1 1
39 1 16.9626 0.905762 2.69422 0.244026 2.09793 -1.77103 1 1
40 1 16.9371 2.67429 0.891429 0 0 0 1 2
41 1 17.8286 0 0 0 0 0 1 3
42 1 17.8475 1.79855 1.81497 2.85791 1.19433 3.03976 1 1
43 1 19.6439 21.3854 1.82982 -6.09768 -2.01485 -7.05272 1 1
44 1 19.6114 1.78286 0 0 0 0 1 3
45 1 18.72 0.891429 0.891429 0 0 0 1 2
46 1 18.6972 2.66692 2.67051 -0.221474 0.606344 -2.40835 1 1
47 1 20.5069 0.920568 2.71531 5.95919 -12.122 8.39668 1 1
48 1 20.5029 2.67429 0.891429 0 0 0 1 2
49 1 0 3.56572 0 0 0 0 1 3
50 1 0.00224131 5.33326 1.81538 -4.64159 0.472757 2.18569 1 1
51 1 1.7481 3.55281 1.79989 -0.81464 -4.67676 3.81958 1 1
52 1 1.78286 5.34857 0 0 0 0 1 3
53 1 0.891429 4.45714 0.891429 0 0 0 1 2
54 1 0.901477 6.24564 2.69023 -2.67894 2.71309 -1.15404 1 1
55 1 2.65353 4.45211 2.70966 2.1819 -6.68046 -8.39299 1 1
56 1 2.67429 6.24 0.891429 0 0 0 1 2
57 1 3.56572 3.56572 0 0 0 0 1 3
58 1 3.55748 5.33809 1.79978 -3.00801 6.40154 2.72612 1 1
59 1 5.36404 3.56302 1.78624 2.90709 1.14484 -5.34893 1 1
60 1 5.34857 5.34857 0 0 0 0 1 3
61 1 4.45714 4.45714 0.891429 0 0 0 1 2
62 1 4.48335 6.21638 2.68378 -1.68553 2.21582 3.54958 1 1
63 1 6.2378 4.42548 2.69567 1.11988 -5.16281 1.32632 1 1
64 1 6.24 6.24 0.891429 0 0 0 1 2
65 1 7.13143 3.56572 0 0 0 0 1 3
66 1 7.14701 5.32142 1.81881 1.44979 2.09877 0.387938 1 1
67 1 8.88847 3.53768 1.78038 1.42148 1.54222 -8.78653 1 1
68 1 8.91429 5.34857 0 0 0 0 1 3
69 1 8.02286 4.45714 0.891429 0 0 0 1 2
70 1 8.01096 6.23779 2.68976 -0.181329 -4.5973 1.45575 1 1
71 1 9.80585 4.45879 2.7101 -1.77207 -0.968967 0.923055 1 1
72 1 9.80572 6.24 0.891429 0 0 0 1 2
73 1 10.6971 3.56572 0 0 0 0 1 3
74 1 10.6958 5.37645 1.7839 -7.79323 5.02925 -1.96671 1 1
75 1 12.5118 3.58819 1.79053 -1.84764 0.999623 2.51206 1 1
76 1 12.48 5.34857 0 0 0 0 1 3
77 1 11.5886 4.45714 0.891429 0 0 0 1 2
78 1 11.5819 6.26247 2.70532 9.40361 -7.56203 -9.0307 1 1
79 1 13.3514 4.48504 2.72695 -1.84597 8.89997 -0.144374 1 1
80 1 13.3714 6.24 0.891429 0 0 0 1 2
81 1 14.2629 3.56572 0 0 0 0 1 3
82 1 14.252 5.34623 1.81118 -3.64575 -3.04664 2.07142 1 1
83 1 16.0278 3.57509 1.79796 2.79448 2.09245 -3.65381 1 1
84 1 16.0457 5.34857 0 0 0 0 1 3
85 1 15.1543 4.45714 0.891429 0 0 0 1 2
86 1 15.1196 6.26022 2.68001 -7.73229 1.35646 7.74817 1 1
87 1 16.9104 4.44262 2.70508 -11.15 9.02618 -2.68212 1 1
88 1 16.9371 6.24 0.891429 0 0 0 1 2
89 1 17.8286 3.56572 0 0 0 0 1 3
90 1 17.8247 5.30128 1.7913 4.40859 0.373354 4.95679 1 1
91 1 19.6099 3.57896 1.78804 1.90571 2.58936 8.3031 1 1
92 1 19.6114 5.34857 0 0 0 0 1 3
93 1 18.72 4.45714 0.891429 0 0 0 1 2
94 1 18.6695 6.2171 2.72915 -2.62614 0.107386 2.27867 1 1
95 1 20.5063 4.47997 2.67048 -0.240498 3.8806 -4.69699 1 1
96 1 20.5029 6.24 0.891429 0 0 0 1 2
97 1 0 7.13143 0 0 0 0 1 3
98 1 21.3683 8.94491 1.82798 -6.38441 1.60691 1.28326 1 1
99 1 1.78374 7.1511 1.78284 1.79696 4.36301 0.372595 1 1
100 1 1.78286 8.91429 0 0 0 0 1 3
101 1 0.891429 8.02286 0.891429 0 0 0 1 2
102 1 0.90313 9.821 2.71995 1.59997 1.94906 -3.16189 1 1
103 1 2.68294 8.08178 2.64852 -2.47676 1.24177 9.18328 1 1
104 1 2.67429 9.80572 0.891429 0 0 0 1 2
105 1 3.56572 7.13143 0 0 0 0 1 3
106 1 3.57041 8.95753 1.73416 2.14273 7.35733 2.11893 1 1
107 1 5.36955 7.14233 1.75918 -7.32863 0.328189 -2.73963 1 1
108 1 5.34857 8.91429 0 0 0 0 1 3
109 1 4.45714 8.02286 0.891429 0 0 0 1 2
110 1 4.43395 9.79219 2.6175 1.86727 7.14979 4.84123 1 1
111 1 6.25382 7.98207 2.68639 -1.2515 -1.36753 -11.7285 1 1
112 1 6.24 9.80572 0.891429 0 0 0 1 2
113 1 7.13143 7.13143 0 0 0 0 1 3
114 1 7.12673 8.92724 1.76013 -1.23898 8.74269 4.78351 1 1
115 1 8.89297 7.13965 1.80324 5.60779 0.847757 -2.21764 1 1
116 1 8.91429 8.91429 0 0 0 0 1 3
117 1 8.02286 8.02286 0.891429 0 0 0 1 2
118 1 8.02222 9.79488 2.65071 -10.8176 1.71757 3.7782 1 1
119 1 9.81473 8.04236 2.72495 10.132 2.92007 5.94618 1 1
120 1 9.80572 9.80572 0.891429 0 0 0 1 2
121 1 10.6971 7.13143 0 0 0 0 1 3
122 1 10.7263 8.89868 1.81448 4.5842 2.40606 -1.98876 1 1
123 1 12.4571 7.14522 1.75848 -0.698056 7.21943 -0.919138 1 1
124 1 12.48 8.91429 0 0 0 0 1 3
125 1 11.5886 8.02286 0.891429 0 0 0 1 2
126 1 11.5973 9.78639 2.69502 -2.46253 7.36242 -10.0285 1 1
127 1 13.3354 8.03645 2.68896 -2.54885 -0.737338 -0.407929 1 1
128 1 13.3714 9.80572 0.891429 0 0 0 1 2
129 1 14.2629 7.13143 0 0 0 0 1 3
130 1 14.2374 8.91509 1.82938 1.17258 3.07027 0.587355 1 1
131 1 16.0163 7.14617 1.8105 -3.57896 0.937915 2.42671 1 1
132 1 16.0457 8.91429 0 0 0 0 1 3
133 1 15.1543 8.02286 0.891429 0 0 0 1 2
134 1 15.206 9.78289 2.70916 5.17984 1.14821 -2.78295 1 1
135 1 16.8939 8.01189 2.75061 0.577293 -8.71293 -3.15127 1 1
136 1 16.9371 9.80572 0.891429 0 0 0 1 2
137 1 17.8286 7.13143 0 0 0 0 1 3
138 1 17.8097 8.88725 1.81232 0.64439 0.240746 -3.99617 1 1
139 1 19.5686 7.1224 1.78765 4.74923 -4.00976 1.77118 1 1
140 1 19.6114 8.91429 0 0 0 0 1 3
141 1 18.72 8.02286 0.891429 0 0 0 1 2
142 1 18.7421 9.87064 2.6721 -7.29656 6.21616 5.63937 1 1
143 1 20.5125 8.03283 2.68278 3.43513 -3.26835 4.06718 1 1
144 1 20.5029 9.80572 0.891429 0 0 0 1 2
145 1 0 10.6971 0 0 0 0 1 3
146 1 21.3735 12.4979 1.82048 2.35525 -6.44212 -10.5765 1 1
147 1 1.7873 10.6782 1.78138 4.05167 -3.68139 2.20205 1 1
148 1 1.78286 12.48 0 0 0 0 1 3
149 1 0.891429 11.5886 0.891429 0 0 0 1 2
150 1 0.898199 13.3945 2.7 -1.76716 -5.01032 -2.55968 1 1
151 1 2.69459 11.5953 2.71165 3.10695 -2.46573 3.52165 1 1
152 1 2.67429 13.3714 0.891429 0 0 0 1 2
153 1 3.56572 10.6971 0 0 0 0 1 3
154 1 3.60747 12.4592 1.8301 5.90732 0.0346067 -6.95484 1 1
155 1 5.31933 10.7164 1.7572 9.88461 3.12801 0.604853 1 1
156 1 5.34857 12.48 0 0 0 0 1 3
157 1 4.45714 11.5886 0.891429 0 0 0 1 2
158 1 4.47731 13.384 2.68023 1.93769 -14.0603 -2.73138 1 1
159 1 6.25053 11.6096 2.73536 -5.0664 -3.85572 9.07316 1 1
160 1 6.24 13.3714 0.891429 0 0 0 1 2
161 1 7.13143 10.6971 0 0 0 0 1 3
162 1 7.16749 12.4822 1.77084 5.70021 9.21045 11.9734 1 1
163 1 8.89909 10.6917 1.77171 -1.06953 1.39784 -2.98486 1 1
164 1 8.91429 12.48 0 0 0 0 1 3
165 1 8.02286 11.5886 0.891429 0 0 0 1 2
166 1 8.06095 13.3703 2.64204 2.70396 -1.61547 2.65766 1 1
167 1 9.80065 11.6084 2.67664 0.409477 1.14585 1.38511 1 1
168 1 9.80572 13.3714 0.891429 0 0 0 1 2
169 1 10.6971 10.6971 0 0 0 0 1 3
170 1 10.7541 12.4711 1.78758 -0.610425 0.265361 14.7189 1 1
171 1 12.4854 10.6998 1.78263 4.43959 -3.92023 1.76183 1 1
172 1 12.48 12.48 0 0 0 0 1 3
173 1 11.5886 11.5886 0.891429 0 0 0 1 2
174 1 11.5889 13.3454 2.6924 0.499654 -0.701616 8.08397 1 1
175 1 13.3705 11.5792 2.66877 3.26987 6.41245 3.85968 1 1
176 1 13.3714 13.3714 0.891429 0 0 0 1 2
177 1 14.2629 10.6971 0 0 0 0 1 3
178 1 14.24 12.4961 1.78272 -0.504053 -4.71649 -1.57856 1 1
179 1 16.0719 10.6947 1.80524 -7.68871 -0.469651 3.22622 1 1
180 1 16.0457 12.48 0 0 0 0 1 3
181 1 15.1543 11.5886 0.891429 0 0 0 1 2
182 1 15.1508 13.3389 2.65059 -1.5508 3.07504 6.12267 1 1
183 1 16.9281 11.5719 2.66963 -4.10416 4.64158 -2.89759 1 1
184 1 16.9371 13.3714 0.891429 0 0 0 1 2
185 1 17.8286 10.6971 0 0 0 0 1 3
186 1 17.8646 12.484 1.79504 -0.912862 -1.2572 1.98788 1 1
187 1 19.5978 10.7022 1.78599 -3.32909 1.23241 -0.540794 1 1
188 1 19.6114 12.48 0 0 0 0 1 3
189 1 18.72 11.5886 0.891429 0 0 0 1 2
190 1 18.6863 13.4029 2.73947 0.93228 6.57488 1.86536 1 1
191 1 20.5027 11.5723 2.70498 -2.09801 -5.58662 -0.521768 1 1
192 1 20.5029 13.3714 0.891429 0 0 0 1 2
193 1 0 14.2629 0 0 0 0 1 3
194 1 0.00927753 16.0788 1.78358 3.75605 -5.42647 11.5045 1 1
195 1 1.74966 14.2905 1.81207 -2.74923 4.19246 0.023687 1 1
196 1 1.78286 16.0457 0 0 0 0 1 3
197 1 0.891429 15.1543 0.891429 0 0 0 1 2
198 1 0.961507 16.9597 2.69087 -0.902672 -0.888862 10.8895 1 1
199 1 2.68098 15.16 2.71127 -0.847409 -2.45725 3.30854 1 1
200 1 2.67429 16.9371 0.891429 0 0 0 1 2
201 1 3.56572 14.2629 0 0 0 0 1 3
202 1 3.5416 16.0044 1.78806 -11.2014 4.97043 -4.00274 1 1
203 1 5.35002 14.2829 1.75633 -11.3012 -2.50102 -3.89423 1 1
204 1 5.34857 16.0457 0 0 0 0 1 3
205 1 4.45714 15.1543 0.891429 0 0 0 1 2
206 1 4.43511 16.9317 2.64234 -5.04887 -3.34177 -2.76092 1 1
207 1 6.27171 15.1542 2.65815 -3.13493 8.24134 0.408506 1 1
208 1 6.24 16.9371 0.891429 0 0 0 1 2
209 1 7.13143 14.2629 0 0 0 0 1 3
210 1 7.13743 16.0456 1.7807 -1.41353 -3.78561 5.95203 1 1
211 1 8.95493 14.2503 1.78247 2.72818 2.31447 -1.6754 1 1
212 1 8.91429 16.0457 0 0 0 0 1 3
213 1 8.02286 15.1543 0.891429 0 0 0 1 2
214 1 8.03075 16.9098 2.63453 1.76425 -4.65079 7.40035 1 1
215 1 9.85439 15.1513 2.66523 4.32513 -0.709802 5.888 1 1
216 1 9.80572 16.9371 0.891429 0 0 0 1 2
217 1 10.6971 14.2629 0 0 0 0 1 3
218 1 10.6953 16.0663 1.78203 3.79885 -1.56926 -8.75823 1 1
219 1 12.468 14.2598 1.84209 -0.0391002 -2.59863 3.07985 1 1
220 1 12.48 16.0457 0 0 0 0 1 3
221 1 11.5886 15.1543 0.891429 0 0 0 1 2
222 1 11.6025 16.9255 2.69008 -0.560639 -8.22751 2.85996 1 1
223 1 13.3693 15.193 2.70215 -2.33986 4.68786 0.118181 1 1
224 1 13.3714 16.9371 0.891429 0 0 0 1 2
225 1 14.2629 14.2629 0 0 0 0 1 3
226 1 14.2691 16.0643 1.80194 1.90421 -4.74077 5.67248 1 1
227 1 16.0492 14.2812 1.80882 2.8472 8.8263 -3.83677 1 1
228 1 16.0457 16.0457 0 0 0 0 1 3
229 1 15.1543 15.1543 0.891429 0 0 0 1 2
230 1 15.127 16.9693 2.68157 -2.79389 9.70891 -5.53002 1 1
231 1 16.928 15.1735 2.67374 -0.72005 -8.69622 -1.44622 1 1
232 1 16.9371 16.9371 0.891429 0 0 0 1 2
233 1 17.8286 14.2629 0 0 0 0 1 3
234 1 17.8435 16.0263 1.77369 10.4418 -3.21401 1.44711 1 1
235 1 19.6099 14.2536 1.8402 -5.09575 -7.67242 3.18253 1 1
236 1 19.6114 16.0457 0 0 0 0 1 3
237 1 18.72 15.1543 0.891429 0 0 0 1 2
238 1 18.7916 16.9144 2.66739 2.8361 -2.09453 7.25048 1 1
239 1 20.5048 15.1999 2.68166 0.854441 1.71218 7.60568 1 1
240 1 20.5029 16.9371 0.891429 0 0 0 1 2
241 1 0 17.8286 0 0 0 0 1 3
242 1 0.00691495 19.6675 1.79266 -2.22965 -4.29663 8.87032 1 1
243 1 1.81914 17.8277 1.7925 3.14002 5.89564 -9.05426 1 1
244 1 1.78286 19.6114 0 0 0 0 1 3
245 1 0.891429 18.72 0.891429 0 0 0 1 2
246 1 0.948008 20.522 2.6844 2.02219 -2.11514 -3.15244 1 1
247 1 2.67654 18.7213 2.67566 -0.0124289 -3.85441 -1.68914 1 1
248 1 2.67429 20.5029 0.891429 0 0 0 1 2
249 1 3.56572 17.8286 0 0 0 0 1 3
250 1 3.56705 19.6234 1.79101 -0.688827 -0.501211 10.4319 1 1
251 1 5.35021 17.8241 1.77932 -3.14537 -8.38293 -3.25418 1 1
252 1 5.34857 19.6114 0 0 0 0 1 3
253 1 4.45714 18.72 0.891429 0 0 0 1 2
254 1 4.38468 20.5269 2.65597 9.05914 -2.43002 -4.92016 1 1
255 1 6.23447 18.7013 2.70329 -3.48704 5.18783 1.65936 1 1
256 1 6.24 20.5029 0.891429 0 0 0 1 2
257 1 7.13143 17.8286 0 0 0 0 1 3
258 1 7.15071 19.6035 1.80048 -1.73416 4.08139 2.00073 1 1
259 1 8.9366 17.8268 1.72308 6.11853 -5.13382 -6.73489 1 1
260 1 8.91429 19.6114 0 0 0 0 1 3
261 1 8.02286 18.72 0.891429 0 0 0 1 2
262 1 7.93453 20.5013 2.72738 -4.5539 -0.497135 -0.265258 1 1
263 1 9.79472 18.7288 2.65351 -3.40966 -5.16342 0.663598 1 1
264 1 9.80572 20.5029 0.891429 0 0 0 1 2
265 1 10.6971 17.8286 0 0 0 0 1 3
266 1 10.7318 19.576 1.78776 -5.36611 1.9875 -1.73193 1 1
267 1 12.521 17.802 1.79029 -4.43548 -11.8125 0.106299 1 1
268 1 12.48 19.6114 0 0 0 0 1 3
269 1 11.5886 18.72 0.891429 0 0 0 1 2
270 1 11.6041 20.4883 2.7152 4.9775 -4.84174 -7.72377 1 1
271 1 13.3727 18.7008 2.70257 4.68574 -3.5919 1.0461 1 1
272 1 13.3714 20.5029 0.891429 0 0 0 1 2
273 1 14.2629 17.8286 0 0 0 0 1 3
274 1 14.2819 19.6164 1.81135 -0.996647 3.52509 -0.65776 1 1
275 1 16.0347 17.8236 1.81018 -3.09401 3.71909 -0.918561 1 1
276 1 16.0457 19.6114 0 0 0 0 1 3
277 1 15.1543 18.72 0.891429 0 0 0 1 2
278 1 15.1671 20.4575 2.70627 -1.6119 -6.4504 0.101763 1 1
279 1 16.9433 18.7001 2.7108 -4.02372 -0.120854 -0.34749 1 1
280 1 16.9371 20.5029 0.891429 0 0 0 1 2
281 1 17.8286 17.8286 0 0 0 0 1 3
282 1 17.8402 19.6249 1.78603 0.966814 -0.340358 0.992337 1 1
283 1 19.6314 17.8556 1.77962 3.99791 -9.42241 4.06246 1 1
284 1 19.6114 19.6114 0 0 0 0 1 3
285 1 18.72 18.72 0.891429 0 0 0 1 2
286 1 18.7547 20.5121 2.69534 3.07112 -7.07596 4.02274 1 1
287 1 20.5218 18.7234 2.67376 -2.03234 3.50778 1.33728 1 1
288 1 20.5029 20.5029 0.891429 0 0 0 1 2
289 1 0.0177294 0.0187992 3.63609 -5.03779 4.99434 -3.57197 1 1
290 1 0.0021598 1.7789 5.41907 2.34158 -1.28039 7.4252 1 1
291 1 1.80123 21.3796 5.4128 1.73981 3.69958 4.03363 1 1
292 1 1.80256 1.8289 3.57672 1.32741 -0.559116 1.42124 1 1
293 1 0.889986 0.92852 4.52144 0.180864 -9.05597 1.33916 1 1
294 1 0.8817 2.66919 6.27688 -1.08845 2.93334 -1.68601 1 1
295 1 2.62393 0.921969 6.30926 5.61537 3.21954 1.56363 1 1
296 1 2.67945 2.65072 4.5138 -0.605117 -1.35466 -3.62976 1 1
297 1 3.53219 0.0164496 3.5535 10.4574 -1.98444 8.27732 1 1
298 1 3.58124 1.7845 5.39981 1.2726 1.98664 -2.92416 1 1
299 1 5.30422 21.3854 5.34672 10.6239 6.66554 -2.15396 1 1
300 1 5.36946 1.78046 3.60641 0.265376 -2.44473 0.0337235 1 1
301 1 4.43056 0.926003 4.53105 -6.78944 6.40978 3.15438 1 1
302 1 4.45981 2.63307 6.32893 10.5142 3.48069 0.125574 1 1
303 1 6.21958 0.880716 6.28371 -5.65479 1.47975 0.161948 1 1
304 1 6.23899 2.68937 4.54163 -3.91594 8.87192 0.249997 1 1
305 1 7.10158 0.022183 3.56621 -1.56743 3.24153 1.22593 1 1
306 1 7.11984 1.76475 5.4112 4.46476 -1.46948 0.254363 1 1
307 1 8.85454 21.3812 5.40921 2.44008 -8.1532 -0.925859 1 1
308 1 8.93428 1.81947 3.59143 1.57172 4.56219 5.74982 1 1
309 1 8.03855 0.898389 4.51334 3.92428 2.69465 10.3296 1 1
310 1 8.05577 2.66942 6.29827 -7.97107 2.53674 0.416373 1 1
311 1 9.7666 0.878877 6.29413 1.43922 5.47346 -3.82222 1 1
312 1 9.79877 2.6882 4.49856 1.49864 1.71333 6.90263 1 1
313 1 10.6734 21.3799 3.59051 4.32303 -4.88918 3.13103 1 1
314 1 10.6891 1.75511 5.40053 7.79934 -5.05286 8.70502 1 1
315 1 12.4429 21.3785 5.38939 5.27019 4.54203 5.22809 1 1
316 1 12.456 1.77255 3.56826 7.23673 0.963573 3.354 1 1
317 1 11.5546 0.911902 4.47313 5.95661 1.97946 6.33712 1 1
318 1 11.5796 2.64744 6.30705 -2.477 -3.483 -6.45806 1 1
319 1 13.3857 0.84997 6.2875 7.19569 -6.5792 -2.92426 1 1
320 1 13.3619 2.65494 4.48376 -4.99223 0.0882002 4.53137 1 1
321 1 14.3009 21.3706 3.57422 3.42234 -1.12602 4.65239 1 1
322 1 14.302 1.77901 5.34702 -3.69461 2.22921 -3.54749 1 1
323 1 16.036 0.00841639 5.35237 6.85934 1.91074 5.35547 1 1
324 1 16.0254 1.8336 3.59096 -8.91651 4.95097 4.50069 1 1
325 1 15.1645 0.906059 4.45531 -2.86152 -3.70777 -0.139534 1 1
326 1 15.1293 2.6659 6.2998 1.7888 0.363042 1.66759 1 1
327 1 16.9405 0.886855 6.30093 2.23081 6.18206 2.61917 1 1
328 1 16.9214 2.72001 4.49296 5.61716 3.9048 0.306379 1 1
329 1 17.8223 0.0263182 3.58558 -1.44886 2.29318 9.23066 1 1
330 1 17.8189 1.75987 5.3692 -6.08423 12.9479 2.21131 1 1
331 1 19.5964 0.0200155 5.34289 -1.23758 1.36858 3.06716 1 1
332 1 19.6065 1.80025 3.55481 -2.35616 3.00923 5.92165 1 1
333 1 18.6986 0.889245 4.50349 -4.69553 -2.41424 -9.74539 1 1
334 1 18.7318 2.69611 6.29895 -0.12979 -0.976261 3.91461 1 1
335 1 20.4622 0.88422 6.31907 -1.12224 0.721448 5.21173 1 1
336 1 20.4964 2.67175 4.52068 3.25721 2.1794 2.39824 1 1
337 1 0.0402797 3.55512 3.61652 -2.78844 -0.25692 1.97735 1 1
338 1 0.0260778 5.33561 5.37803 -3.70315 -4.57565 1.7014 1 1
339 1 1.82177 3.55856 5.39429 2.93623 0.475081 2.2662 1 1
340 1 1.79222 5.3294 3.59398 2.75504 1.55459 3.09469 1 1
341 1 0.941389 4.45984 4.49091 1.06816 7.63763 3.42884 1 1
342 1 0.912663 6.21691 6.31684 0.944788 4.40958 5.42144 1 1
343 1 2.68408 4.45168 6.29581 3.60208 1.16808 0.498323 1 1
344 1 2.73497 6.26215 4.49641 -3.55789 -9.4674 3.57459 1 1
345 1 3.58191 3.56566 3.54557 -4.81086 1.82442 -9.21908 1 1
346 1 3.6041 5.35604 5.4016 -9.7139 -2.6302 -5.62173 1 1
347 1 5.34051 3.57971 5.41692 3.10626 0.968974 0.977544 1 1
348 1 5.39479 5.33901 3.58785 2.67239 1.56651 2.08377 1 1
349 1 4.47809 4.46697 4.47349 -2.44165 -2.71609 -9.69146 1 1
350 1 4.5106 6.28096 6.27707 5.15079 -3.96927 -3.53635 1 1
351 1 6.24862 4.47523 6.25444 -0.595017 -4.89673 1.09609 1 1
352 1 6.24779 6.23456 4.48243 2.65569 9.31821 -2.00413 1 1
353 1 7.16055 3.5669 3.61873 3.49318 -3.07632 2.28697 1 1
354 1 7.19021 5.36574 5.39674 -2.99388 -0.360741 5.72142 1 1
355 1 8.92617 3.5932 5.39855 -1.83945 0.883482 1.53061 1 1
356 1 8.90955 5.35429 3.63507 7.47271 -2.29686 -2.02974 1 1
357 1 7.9894 4.47524 4.53638 -2.68048 -3.10896 5.36683 1 1
358 1 8.02289 6.26775 6.30704 -1.36351 3.04032 -2.71071 1 1
359 1 9.79887 4.44784 6.31683 -0.813382 1.59497 -6.06232 1 1
360 1 9.77778 6.2598 4.46864 2.71189 1.01706 3.06404 1 1
361 1 10.716 3.55905 3.57803 -9.16976 3.48859 -0.443704 1 1
362 1 10.7072 5.34443 5.41042 1.36734 -4.71089 2.3788 1 1
363 1 12.4757 3.54732 5.39577 5.54311 3.65424 -5.69119 1 1
364 1 12.4734 5.4368 3.65173 3.35084 -5.81086 8.01451 1 1
365 1 11.5893 4.47097 4.48499 5.26612 6.62302 -1.80819 1 1
366 1 11.5589 6.25837 6.28457 7.76914 5.90523 4.36594 1 1
367 1 13.3301 4.44164 6.30666 -8.7784 -3.53059 0.266874 1 1
368 1 13.3699 6.22609 4.52445 -2.7977 -2.00237 -0.234988 1 1
369 1 14.2556 3.5303 3.59432 8.37832 -0.379201 0.364105 1 1
370 1 14.2192 5.3226 5.40159 0.169083 -3.33594 4.57195 1 1
371 1 16.0391 3.57369 5.39268 -7.7694 0.286596 -5.97664 1 1
372 1 16.0351 5.31434 3.5847 6.30631 2.83652 0.205626 1 1
373 1 15.0815 4.43627 4.4973 -6.23955 5.38008 -4.25998 1 1
374 1 15.1339 6.22366 6.28015 -8.10535 -6.09392 -12.3378 1 1
375 1 16.9059 4.49758 6.27571 -3.53353 -3.75845 -5.05455 1 1
376 1 16.9162 6.23631 4.50841 -2.32904 0.599238 0.881607 1 1
377 1 17.831 3.56538 3.5252 0.585341 1.72241 5.52708 1 1
378 1 17.8286 5.31021 5.39599 3.00486 -4.00905 3.03205 1 1
379 1 19.5972 3.53692 5.40363 5.31842 11.3238 8.30918 1 1
380 1 19.6008 5.36936 3.60933 -7.64449 1.54613 1.32908 1 1
381 1 18.7295 4.44009 4.44409 -5.48652 -4.64405 3.71768 1 1
382 1 18.7313 6.22501 6.30168 -0.465585 4.58294 7.2652 1 1
383 1 20.5023 4.42961 6.27847 -3.82356 8.27268 -9.12963 1 1
384 1 20.5879 6.28141 4.52496 -3.17907 6.06602 5.24751 1 1
385 1 0.0327985 7.17443 3.61762 -1.56527 -0.0664475 -5.68604 1 1
386 1 0.0208851 8.91227 5.38854 7.02908 -0.601683 -4.39506 1 1
387 1 1.82624 7.15279 5.39377 4.39479 5.24365 8.04182 1 1
388 1 1.82207 8.938 3.60586 -3.4662 2.30759 -2.1551 1 1
389 1 0.950499 8.05847 4.50281 3.82532 -2.31501 3.89408 1 1
390 1 0.891633 9.80387 6.25422 4.58403 6.64963 0.879799 1 1
391 1 2.71271 8.03613 6.29069 -4.44466 4.32502 -0.433075 1 1
392 1 2.71589 9.78835 4.48653 12.7849 3.59616 0.690752 1 1
393 1 3.63658 7.17405 3.59065 -0.638883 -4.01815 -6.725 1 1
394 1 3.59075 8.91966 5.36714 7.4667 -6.78674 -2.40579 1 1
395 1 5.41637 7.13227 5.38511 5.38464 -3.23584 2.7374 1 1
396 1 5.38896 8.89921 3.54506 1.54913 2.23024 0.971812 1 1
397 1 4.49348 8.04092 4.49812 4.46706 7.57947 7.57112 1 1
398 1 4.50971 9.81301 6.28282 -5.10157 4.95198 0.0105957 1 1
399 1 6.27541 8.01009 6.2968 -1.41856 -1.26605 3.40616 1 1
400 1 6.28387 9.85263 4.46721 -6.2865 4.04718 3.03857 1 1
401 1 7.13708 7.14091 3.56082 -5.77075 6.70185 1.65158 1 1
402 1 7.10466 8.93514 5.39044 5.07808 6.55972 2.94026 1 1
403 1 8.90948 7.12818 5.35817 4.97478 2.82853 9.72678 1 1
404 1 8.91503 8.92554 3.61948 -0.525183 -1.32756 0.650361 1 1
405 1 8.00345 8.01922 4.47701 -4.25486 -2.03892 -2.23338 1 1
406 1 8.01896 9.83148 6.32335 -4.50798 -4.03773 2.61202 1 1
407 1 9.79565 8.00084 6.23856 0.100192 4.51245 1.76755 1 1
408 1 9.79956 9.79753 4.52208 -3.74564 -0.490675 1.37775 1 1
409 1 10.7267 7.14261 3.60564 2.86402 -2.55875 -0.678658 1 1
410 1 10.6822 8.91108 5.39507 -1.54785 6.25903 0.748884 1 1
411 1 12.4357 7.12084 5.40706 1.98979 -0.273971 4.81894 1 1
412 1 12.4716 8.92059 3.6024 0.582901 -5.24853 7.83855 1 1
413 1 11.61 8.04233 4.49728 4.51855 1.20585 8.45339 1 1
414 1 11.5926 9.81428 6.27353 1.40413 1.19549 3.92449 1 1
415 1 13.3463 8.03965 6.30235 -1.93367 4.96195 -1.76473 1 1
416 1 13.3826 9.83408 4.48178 6.7962 8.53087 2.49995 1 1
417 1 14.2665 7.11052 3.60463 -3.60838 3.38462 -2.23918 1 1
418 1 14.2504 8.88716 5.43659 -0.82868 0.0569927 2.61975 1 1
419 1 16.0468 7.07907 5.37086 3.69949 -1.70411 -4.96228 1 1
420 1 16.0821 8.87894 3.61494 2.33982 0.379425 -1.404 1 1
421 1 15.1284 7.99166 4.50052 -2.23823 -0.800983 3.1836 1 1
422 1 15.1383 9.80382 6.30406 2.88129 -6.71052 2.35937 1 1
423 1 16.9347 7.98731 6.25123 -3.62853 -0.192129 0.0581137 1 1
424 1 16.9441 9.80681 4.46345 -8.12801 1.89326 -4.08837 1 1
425 1 17.7992 7.12515 3.61696 -9.19319 16.414 8.97889 1 1
426 1 17.838 8.92238 5.33776 2.16861 -7.60183 3.86551 1 1
427 1 19.6509 7.09964 5.39494 -3.98251 -11.9782 -1.33779 1 1
428 1 19.6305 8.88225 3.62045 5.95611 -1.90918 4.85224 1 1
429 1 18.7415 7.9785 4.47949 5.37284 2.86206 -3.97214 1 1
430 1 18.7056 9.78263 6.24137 1.56584 -1.03767 -0.635404 1 1
431 1 20.516 8.03048 6.26314 5.19151 1.5138 -1.08083 1 1
432 1 20.4931 9.82372 4.4782 1.90298 -3.91494 2.21789 1 1
433 1 21.3825 10.6804 3.58066 -2.41403 -3.98788 6.27038 1 1
434 1 21.3687 12.5053 5.36388 1.90647 0.620321 3.9943 1 1
435 1 1.79468 10.6603 5.32747 -6.69148 -4.14406 4.8449 1 1
436 1 1.76923 12.4384 3.56658 4.82493 -3.46123 -3.6157 1 1
437 1 0.883359 11.5605 4.43552 -0.708972 0.726063 -1.99126 1 1
438 1 0.88225 13.3798 6.27382 2.20907 -5.52017 0.513434 1 1
439 1 2.66891 11.5747 6.23769 3.17671 2.77178 7.11743 1 1
440 1 2.73436 13.3211 4.48187 -4.15735 7.7941 5.23792 1 1
441 1 3.58055 10.6942 3.59966 2.93489 -3.57503 -2.32626 1 1
442 1 3.59766 12.4357 5.37853 -6.41741 -0.659577 3.01933 1 1
443 1 5.39743 10.717 5.33194 4.96542 3.41174 -0.360465 1 1
444 1 5.35048 12.5011 3.56284 2.11184 8.83557 3.96348 1 1
445 1 4.52117 11.5642 4.4864 0.352491 1.15608 2.51113 1 1
446 1 4.50608 13.4113 6.29255 4.76694 -2.41861 5.22115 1 1
447 1 6.22527 11.6306 6.21876 -6.8603 4.43153 -0.905277 1 1
448 1 6.23827 13.3819 4.47432 2.41169 7.65876 -2.16906 1 1
449 1 7.14416 10.7584 3.58167 6.04339 -0.598992 -2.99059 1 1
450 1 7.14943 12.4918 5.38671 3.05535 -7.36996 -0.668879 1 1
451 1 8.93214 10.6972 5.40745 0.574538 5.91119 7.68023 1 1
452 1 8.91945 12.4668 3.59085 1.24715 5.73274 7.45595 1 1
453 1 8.02083 11.5828 4.47337 4.47315 3.81272 0.453545 1 1
454 1 8.01525 13.3806 6.24824 2.44189 -2.08493 2.35681 1 1
455 1 9.82208 11.5786 6.30289 2.59166 -1.26423 -1.94632 1 1
456 1 9.8327 13.3567 4.4967 -5.9124 2.90015 2.8327 1 1
457 1 10.6901 10.6878 3.62587 0.0857473 -8.37318 -1.54869 1 1
458 1 10.7226 12.4831 5.37926 3.94163 5.33914 3.91087 1 1
459 1 12.4438 10.7209 5.37684 0.0874257 4.93892 -7.10599 1 1
460 1 12.4892 12.4845 3.58475 3.0778 11.0612 4.33305 1 1
461 1 11.5975 11.61 4.46605 -1.45755 -3.08599 1.47453 1 1
462 1 11.6211 13.3781 6.27428 2.76125 -4.28219 3.52468 1 1
463 1 13.3947 11.5484 6.26692 4.52937 -6.47846 -1.67769 1 1
464 1 13.4224 13.3633 4.49779 -1.1472 4.3026 -6.89 1 1
465 1 14.3229 10.7001 3.58938 1.58893 6.7193 9.39219 1 1
466 1 14.3079 12.4387 5.39341 -1.7183 1.21966 -5.31106 1 1
467 1 16.0491 10.7152 5.41209 -1.04896 0.577027 0.90428 1 1
468 1 16.0466 12.4721 3.56033 -7.59852 -7.14846 5.28583 1 1
469 1 15.1979 11.5711 4.48398 -4.3988 1.33618 3.26967 1 1
470 1 15.2344 13.3644 6.2803 -3.74331 2.6872 -1.47388 1 1
471 1 16.9466 11.6025 6.33556 -3.26313 4.81306 0.779713 1 1
472 1 16.9292 13.3995 4.4756 10.672 5.407 -7.16719 1 1
473 1 17.8344 10.7274 3.61869 1.05908 1.72481 4.27814 1 1
474 1 17.8371 12.514 5.3903 -7.86877 -3.3327 -0.27604 1 1
475 1 19.5814 10.6911 5.3726 2.14251 -9.26461 6.59399 1 1
476 1 19.6115 12.5103 3.63969 5.38038 -0.410738 4.89294 1 1
477 1 18.7154 11.5967 4.50083 4.95731 -5.42623 -3.15755 1 1
478 1 18.7291 13.3912 6.32318 -5.91374 5.36931 -6.06835 1 1
479 1 20.4839 11.5714 6.26229 3.2627 5.16271 2.78066 1 1
480 1 20.506 13.39 4.50435 10.3694 5.14511 0.699156 1 1
481 1 0.0157292 14.2729 3.61194 -0.606745 0.0610382 4.04374 1 1
482 1 21.3893 16.0722 5.45467 -1.72658 8.59403 -0.341967 1 1
483 1 1.79643 14.2545 5.41526 0.13976 5.26932 -0.693168 1 1
484 1 1.7839 16.096 3.57161 -4.34666 -2.5096 3.44533 1 1
485 1 0.912677 15.1695 4.51584 6.45782 11.7808 -5.91045 1 1
486 1 0.902495 16.9527 6.31896 -0.902541 -7.35196 0.484788 1 1
487 1 2.73025 15.143 6.30835 -5.66369 -3.82289 -3.02276 1 1
488 1 2.68798 16.9407 4.487 10.4487 -0.173685 -0.653213 1 1
489 1 3.57111 14.298 3.60233 2.97537 -3.00744 7.33361 1 1
490 1 3.60138 16.0537 5.35687 -3.1828 -1.07105 3.71146 1 1
491 1 5.3634 14.2988 5.3478 1.31904 1.50225 -3.57733 1 1
492 1 5.32882 16.0916 3.56099 2.31864 6.33681 9.93718 1 1
493 1 4.4377 15.1974 4.45206 4.08894 2.51014 -1.77308 1 1
494 1 4.51737 16.9238 6.29291 6.09672 7.53543 2.32007 1 1
495 1 6.29272 15.1909 6.27123 8.11814 6.36147 6.02799 1 1
496 1 6.26586 16.9688 4.43704 -4.62778 -0.383578 -0.489915 1 1
497 1 7.13197 14.2627 3.52316 -3.20185 -2.26157 -0.314674 1 1
498 1 7.1567 16.0664 5.34428 0.848888 1.9305 -3.26117 1 1
499 1 8.88489 14.2301 5.34154 -5.50194 2.55942 -0.485352 1 1
500 1 8.92034 16.0592 3.51281 -0.405831 3.15448 -5.92984 1 1
501 1 8.04587 15.1781 4.46079 -4.45144 -1.73455 0.374338 1 1
502 1 8.00737 16.9324 6.26116 -2.19082 9.55983 1.14236 1 1
503 1 9.79894 15.1132 6.24669 4.30284 0.654059 -2.52355 1 1
504 1 9.76288 16.9051 4.47416 0.0401818 -6.45639 -1.21927 1 1
505 1 10.6938 14.2277 3.5842 -8.01878 -3.67967 5.3207 1 1
506 1 10.6275 16.0349 5.32704 -1.90846 -1.89633 0.0738567 1 1
507 1 12.5065 14.2565 5.37165 4.49102 1.4154 -2.24695 1 1
508 1 12.4927 16.062 3.56899 -4.29715 2.8573 9.0894 1 1
509 1 11.6229 15.1526 4.46157 4.7452 2.02625 -3.42825 1 1
510 1 11.5458 16.9322 6.22524 0.396988 -1.21947 -6.84782 1 1
511 1 13.3881 15.1323 6.28913 8.12477 3.91377 -0.126915 1 1
512 1 13.3711 16.9704 4.4965 -3.22949 2.6119 1.80023 1 1
513 1 14.2664 14.2294 3.52409 3.97255 0.477644 12.5991 1 1
514 1 14.321 16.0637 5.37791 7.72774 -0.178866 -0.851657 1 1
515 1 16.0366 14.3044 5.40035 5.4217 1.37252 -3.48604 1 1
516 1 16.0663 16.0885 3.53805 6.00914 -1.25973 4.26565 1 1
517 1 15.205 15.1489 4.43546 -2.12083 2.82021 -2.32947 1 1
518 1 15.165 16.9401 6.27174 -2.44809 6.42509 0.285964 1 1
519 1 16.9164 15.2121 6.31454 7.18153 4.61992 -2.86927 1 1
520 1 16.9304 16.981 4.50316 -5.48732 -3.40489 -2.83886 1 1
521 1 17.794 14.3288 3.62298 -1.68778 1.96376 -0.0688693 1 1
522 1 17.8021 16.0358 5.40978 0.675572 5.81233 -1.55728 1 1
523 1 19.5898 14.2369 5.38776 0.345257 1.77149 -5.17585 1 1
524 1 19.6777 16.0673 3.60708 -8.07159 -1.70102 3.00672 1 1
525 1 18.7287 15.158 4.52981 0.837704 3.56596 1.41855 1 1
526 1 18.7003 16.9266 6.28527 0.0170409 -1.29684 3.83648 1 1
527 1 20.4791 15.1222 6.30403 1.56134 -8.0317 -9.61631 1 1
528 1 20.5609 16.9792 4.52047 1.54963 -7.65274 4.47171 1 1
529 1 0.0259577 17.8386 3.57341 -3.34541 2.87303 -1.53484 1 1
530 1 0.0515024 19.6481 5.35375 0.155807 -0.199746 9.67497 1 1
531 1 1.77329 17.7988 5.378 -3.02956 0.899133 -3.90612 1 1
532 1 1.80335 19.6599 3.59593 -2.71058 -0.288816 -1.16109 1 1
533 1 0.918969 18.7409 4.46017 8.37893 -3.46409 6.65888 1 1
534 1 0.928891 20.5171 6.31524 13.8467 -0.35244 -3.67026 1 1
535 1 2.66493 18.692 6.2506 -1.79099 -0.313804 -7.32925 1 1
536 1 2.66518 20.5387 4.50571 -4.82631 -9.085 -1.0131 1 1
537 1 3.56395 17.8394 3.55407 5.72305 -1.15973 -1.53536 1 1
538 1 3.55222 19.6288 5.39103 3.70384 -8.51663 -2.93319 1 1
539 1 5.37392 17.8648 5.36599 -3.72478 10.5193 1.85508 1 1
540 1 5.32834 19.645 3.5539 -0.890763 5.04467 -1.49251 1 1
541 1 4.44356 18.7645 4.44584 2.38206 3.40322 -2.24695 1 1
542 1 4.4414 20.4975 6.30364 3.83945 2.22747 -5.94244 1 1
543 1 6.20336 18.7289 6.28518 -2.52684 4.19587 -1.79701 1 1
544 1 6.22717 20.484 4.44743 -10.4441 -2.57012 -4.19129 1 1
545 1 7.16787 17.8134 3.57688 -5.62672 3.36275 1.3021 1 1
546 1 7.06523 19.6237 5.34998 -2.76781 -7.79636 7.20092 1 1
547 1 8.89788 17.8234 5.38138 -3.09097 -1.87293 -1.19618 1 1
548 1 8.86291 19.6305 3.6246 -2.39967 -5.15157 -5.33062 1 1
549 1 7.98849 18.723 4.51204 0.304814 0.922676 -5.2715 1 1
550 1 7.94035 20.4827 6.29039 -2.6262 2.68772 -6.4419 1 1
551 1 9.78013 18.7562 6.24888 2.2678 -5.75636 -5.93942 1 1
552 1 9.76936 20.5035 4.50519 -5.19507 -1.98083 -2.45646 1 1
553 1 10.705 17.8365 3.54276 -1.88047 -2.46267 -3.50097 1 1
554 1 10.6926 19.6219 5.36435 1.75086 3.75296 5.75789 1 1
555 1 12.475 17.8413 5.38857 -2.67551 -3.1163 -5.60152 1 1
556 1 12.4672 19.577 3.58459 -10.7574 2.93339 -5.86948 1 1
557 1 11.5734 18.726 4.45906 4.28683 -3.72251 -1.10645 1 1