ITEM: TIMESTEP
2350
ITEM: NUMBER OF ATOMS
2952
ITEM: BOX BOUNDS pp pp mm
0.0000000000000000e+00 2.1394294200000001e+01
0.0000000000000000e+00 2.1394294200000001e+01
-4.4571446250000002e-01 5.3485735500000004e+01
ITEM: ATOMS id type x y z vx vy vz v_is_diamond c_structure_type
1 1 0 0 0 0 0 0 1 3
2 1 1.78286 1.78286 0 0 0 0 1 3
3 1 0.891429 0.891429 0.891429 0 0 0 1 2
4 1 0.893094 2.68258 2.69501 -5.32932 -0.921436 -0.961684 1 1
5 1 2.68428 0.878294 2.68437 4.09557 -5.70083 -2.85551 1 1
6 1 2.67429 2.67429 0.891429 0 0 0 1 2
7 1 0.00441538 1.73498 1.77889 -1.48353 0.71485 -6.30052 1 1
8 1 1.78704 -0.00852382 1.78127 -3.52884 2.93382 1.89956 1 1
9 1 1.76242 3.53412 1.80938 -0.873206 -0.758911 -2.01013 1 1
10 1 3.55419 1.83257 1.76416 -6.23154 3.27519 -2.45053 1 1
11 1 3.56572 0 0 0 0 0 1 3
12 1 5.34857 1.78286 0 0 0 0 1 3
13 1 4.45714 0.891429 0.891429 0 0 0 1 2
14 1 4.45934 2.71572 2.65865 0.692571 1.48336 -3.28657 1 1
15 1 6.22179 0.957875 2.64079 1.15519 8.87691 4.07068 1 1
16 1 6.24 2.67429 0.891429 0 0 0 1 2
17 1 7.12514 1.8059 1.74474 14.8825 -1.88773 6.21851 1 1
18 1 7.13143 0 0 0 0 0 1 3
19 1 8.02286 0.891429 0.891429 0 0 0 1 2
20 1 8.02268 2.68436 2.65396 -3.08633 1.88905 1.64815 1 1
21 1 8.91429 1.78286 0 0 0 0 1 3
22 1 9.845 0.934895 2.6568 -5.80313 -3.74456 -1.05431 1 1
23 1 9.80572 2.67429 0.891429 0 0 0 1 2
24 1 8.9492 0.0331861 1.75532 -1.7184 -2.28248 -4.59677 1 1
25 1 10.7246 1.78251 1.78447 -1.1586 1.96386 -0.783233 1 1
26 1 10.6971 0 0 0 0 0 1 3
27 1 12.48 1.78286 0 0 0 0 1 3
28 1 11.5886 0.891429 0.891429 0 0 0 1 2
29 1 11.5915 2.69117 2.65011 4.14569 -3.81321 -0.0791069 1 1
30 1 13.3577 0.876291 2.69662 4.09147 0.354121 -2.88539 1 1
31 1 13.3714 2.67429 0.891429 0 0 0 1 2
32 1 14.2376 1.74018 1.74536 3.56104 -0.557947 1.2926 1 1
33 1 14.2629 0 0 0 0 0 1 3
34 1 16.0457 1.78286 0 0 0 0 1 3
35 1 15.1543 0.891429 0.891429 0 0 0 1 2
36 1 15.137 2.66934 2.66774 -7.10457 6.88353 -4.70608 1 1
37 1 16.9552 0.884037 2.66885 -3.24087 -6.89755 -0.829993 1 1
38 1 16.9371 2.67429 0.891429 0 0 0 1 2
39 1 16.0537 21.3967 1.79736 -1.16685 7.83505 5.85038 1 1
40 1 17.8343 1.78077 1.78731 4.33512 -6.28468 -0.432895 1 1
41 1 17.8286 0 0 0 0 0 1 3
42 1 19.6114 1.78286 0 0 0 0 1 3
43 1 18.72 0.891429 0.891429 0 0 0 1 2
44 1 18.7433 2.6799 2.66978 -1.01119 -2.80127 -3.30775 1 1
45 1 20.5156 0.896311 2.71215 0.397856 2.89254 -1.9483 1 1
46 1 20.5029 2.67429 0.891429 0 0 0 1 2
47 1 0 3.56572 0 0 0 0 1 3
48 1 1.78286 5.34857 0 0 0 0 1 3
49 1 0.891429 4.45714 0.891429 0 0 0 1 2
50 1 0.895814 6.24679 2.6887 4.49779 3.93684 -5.86244 1 1
51 1 2.66466 4.43682 2.68065 4.01742 0.702099 -5.06349 1 1
52 1 2.67429 6.24 0.891429 0 0 0 1 2
53 1 3.57466 5.34807 1.75576 5.58472 -0.619824 10.8497 1 1
54 1 5.35759 3.59335 1.77941 2.61635 7.09482 -1.98891 1 1
55 1 3.56572 3.56572 0 0 0 0 1 3
56 1 5.34857 5.34857 0 0 0 0 1 3
57 1 4.45714 4.45714 0.891429 0 0 0 1 2
58 1 4.49639 6.19786 2.69094 7.30868 4.70799 -5.18616 1 1
59 1 6.21689 4.47924 2.71538 -3.97003 0.934758 -3.69571 1 1
60 1 6.24 6.24 0.891429 0 0 0 1 2
61 1 5.37331 7.10487 1.82931 -1.95171 0.196409 6.04872 1 1
62 1 7.09767 5.40609 1.8249 -4.61446 1.1983 9.31999 1 1
63 1 7.13143 3.56572 0 0 0 0 1 3
64 1 8.90565 3.5706 1.74273 -0.63603 5.10456 -8.59022 1 1
65 1 8.02286 4.45714 0.891429 0 0 0 1 2
66 1 7.99443 6.29122 2.69137 2.66671 8.44422 2.673 1 1
67 1 8.91429 5.34857 0 0 0 0 1 3
68 1 9.77935 4.5051 2.6901 -3.58518 -9.36032 -0.469204 1 1
69 1 9.80572 6.24 0.891429 0 0 0 1 2
70 1 10.6996 5.33333 1.78991 0.992867 1.9677 0.274112 1 1
71 1 12.4685 3.58503 1.74705 -0.700749 -3.42854 4.13518 1 1
72 1 10.6971 3.56572 0 0 0 0 1 3
73 1 12.48 5.34857 0 0 0 0 1 3
74 1 11.5886 4.45714 0.891429 0 0 0 1 2
75 1 11.6031 6.21034 2.71168 3.54254 5.02835 12.6432 1 1
76 1 13.3654 4.46815 2.67154 -0.629428 -5.59637 -7.35699 1 1
77 1 13.3714 6.24 0.891429 0 0 0 1 2
78 1 14.267 5.36577 1.78556 -3.71896 -1.22298 -6.53479 1 1
79 1 16.0507 3.54017 1.79376 2.27499 1.07873 -2.64497 1 1
80 1 14.2629 3.56572 0 0 0 0 1 3
81 1 16.0457 5.34857 0 0 0 0 1 3
82 1 15.1543 4.45714 0.891429 0 0 0 1 2
83 1 15.1736 6.21738 2.68499 -1.65494 6.63506 1.09864 1 1
84 1 16.9683 4.44983 2.66883 -5.84033 -0.362575 6.29599 1 1
85 1 16.9371 6.24 0.891429 0 0 0 1 2
86 1 17.8411 5.32123 1.79643 -8.37378 -2.00347 3.19702 1 1
87 1 19.5862 3.57189 1.78544 -2.00231 -6.95094 -1.32893 1 1
88 1 -0.0334593 5.35495 1.75695 0.124025 -2.01022 -2.1715 1 1
89 1 17.8286 3.56572 0 0 0 0 1 3
90 1 19.6114 5.34857 0 0 0 0 1 3
91 1 18.72 4.45714 0.891429 0 0 0 1 2
92 1 18.6951 6.22266 2.71625 -3.15985 2.70633 3.03302 1 1
93 1 20.5324 4.4381 2.68224 -10.84 1.85589 -2.28267 1 1
94 1 20.5029 6.24 0.891429 0 0 0 1 2
95 1 19.6002 7.10035 1.8078 -5.43833 6.11697 -2.6288 1 1
96 1 1.76175 7.14656 1.76737 7.99865 1.19391 -1.28129 1 1
97 1 0 7.13143 0 0 0 0 1 3
98 1 0.891429 8.02286 0.891429 0 0 0 1 2
99 1 2.66112 8.02183 2.70255 -1.82443 5.64141 -2.69352 1 1
100 1 1.78286 8.91429 0 0 0 0 1 3
101 1 0.861649 9.8082 2.69001 1.0121 0.511633 -1.67033 1 1
102 1 2.67429 9.80572 0.891429 0 0 0 1 2
103 1 1.76864 10.7223 1.79317 1.14129 -0.522116 -2.39855 1 1
104 1 3.56664 8.91296 1.77652 -3.36277 2.79742 1.3467 1 1
105 1 3.56572 7.13143 0 0 0 0 1 3
106 1 4.45714 8.02286 0.891429 0 0 0 1 2
107 1 6.28212 8.00612 2.69579 4.31624 4.80304 -7.14233 1 1
108 1 5.34857 8.91429 0 0 0 0 1 3
109 1 4.45214 9.75908 2.6398 -2.99122 7.23662 1.56633 1 1
110 1 6.24 9.80572 0.891429 0 0 0 1 2
111 1 7.15223 8.90504 1.81429 -6.06138 6.76903 5.36257 1 1
112 1 8.93038 7.12605 1.76902 0.563483 6.09267 0.0945575 1 1
113 1 7.13143 7.13143 0 0 0 0 1 3
114 1 8.02286 8.02286 0.891429 0 0 0 1 2
115 1 9.78135 8.07473 2.68064 -9.83008 6.25094 4.10303 1 1
116 1 8.00964 9.80553 2.69171 5.13884 1.83955 0.585605 1 1
117 1 8.91429 8.91429 0 0 0 0 1 3
118 1 9.80572 9.80572 0.891429 0 0 0 1 2
119 1 10.6877 8.92414 1.79772 -1.6266 5.37537 -6.9653 1 1
120 1 12.4653 7.12207 1.8268 3.73545 -3.60138 4.89292 1 1
121 1 10.6971 7.13143 0 0 0 0 1 3
122 1 11.5886 8.02286 0.891429 0 0 0 1 2
123 1 13.3492 8.02074 2.68459 -8.69782 -4.00401 -0.726191 1 1
124 1 12.48 8.91429 0 0 0 0 1 3
125 1 11.5686 9.78906 2.68473 4.02596 6.49749 2.23711 1 1
126 1 13.3714 9.80572 0.891429 0 0 0 1 2
127 1 12.4527 10.6796 1.81568 -2.01915 9.47718 -2.19718 1 1
128 1 16.0153 7.14698 1.75366 5.13546 2.72738 5.38875 1 1
129 1 14.2649 8.91983 1.76591 5.93537 6.59166 -6.97768 1 1
130 1 14.2629 7.13143 0 0 0 0 1 3
131 1 15.1543 8.02286 0.891429 0 0 0 1 2
132 1 16.9213 8.0322 2.68782 -3.26808 -7.99619 7.64461 1 1
133 1 16.0457 8.91429 0 0 0 0 1 3
134 1 15.1354 9.8743 2.70037 4.30181 4.43046 -1.60851 1 1
135 1 16.9371 9.80572 0.891429 0 0 0 1 2
136 1 16.0347 10.6951 1.80916 -4.58862 7.24555 -6.5176 1 1
137 1 17.8007 8.93524 1.79446 7.48594 -1.454 -6.69466 1 1
138 1 21.394 8.91175 1.81493 1.85491 1.84673 -8.13415 1 1
139 1 17.8286 7.13143 0 0 0 0 1 3
140 1 18.72 8.02286 0.891429 0 0 0 1 2
141 1 20.5135 7.98162 2.72177 0.649148 -7.75512 -1.1803 1 1
142 1 19.6114 8.91429 0 0 0 0 1 3
143 1 18.65 9.80511 2.72025 5.22069 4.04784 3.55175 1 1
144 1 20.5029 9.80572 0.891429 0 0 0 1 2
145 1 0 10.6971 0 0 0 0 1 3
146 1 1.78286 12.48 0 0 0 0 1 3
147 1 0.891429 11.5886 0.891429 0 0 0 1 2
148 1 2.70349 11.6039 2.6669 -0.324776 -1.58564 -3.59647 1 1
149 1 0.877359 13.4181 2.68728 -4.84431 -5.00777 -5.60142 1 1
150 1 2.67429 13.3714 0.891429 0 0 0 1 2
151 1 -0.0439557 12.5215 1.7948 -6.98438 -5.61195 6.79325 1 1
152 1 5.33204 10.6845 1.77348 -6.36997 -6.85986 0.510155 1 1
153 1 3.58965 12.4999 1.76512 2.73413 -4.15467 -0.248847 1 1
154 1 3.56572 10.6971 0 0 0 0 1 3
155 1 5.34857 12.48 0 0 0 0 1 3
156 1 4.45714 11.5886 0.891429 0 0 0 1 2
157 1 6.24959 11.5616 2.72526 0.931837 4.19399 -7.47262 1 1
158 1 4.4954 13.3641 2.7235 1.71264 5.03374 -0.160117 1 1
159 1 6.24 13.3714 0.891429 0 0 0 1 2
160 1 5.35769 14.2892 1.75434 8.27462 -8.45568 -2.69125 1 1
161 1 8.94338 10.6363 1.77327 -1.41704 -2.01635 -3.13628 1 1
162 1 7.12616 12.4644 1.78799 0.0923655 -0.387866 0.684138 1 1
163 1 7.13143 10.6971 0 0 0 0 1 3
164 1 8.02286 11.5886 0.891429 0 0 0 1 2
165 1 8.91429 12.48 0 0 0 0 1 3
166 1 9.82361 11.5031 2.68069 2.8619 2.81712 -1.51046 1 1
167 1 8.01174 13.3542 2.69872 3.56686 2.65121 2.33334 1 1
168 1 9.80572 13.3714 0.891429 0 0 0 1 2
169 1 10.6806 12.4519 1.7598 2.18775 -0.765553 -2.36054 1 1
170 1 10.6971 10.6971 0 0 0 0 1 3
171 1 12.48 12.48 0 0 0 0 1 3
172 1 11.5886 11.5886 0.891429 0 0 0 1 2
173 1 13.3218 11.6021 2.70216 2.40868 0.312147 5.15955 1 1
174 1 11.5715 13.3414 2.6955 -0.0492146 -5.8103 6.31555 1 1
175 1 13.3714 13.3714 0.891429 0 0 0 1 2
176 1 12.4689 14.2613 1.78665 -0.207607 -6.82145 -6.13972 1 1
177 1 14.2662 12.4694 1.79862 0.840582 7.17391 -2.77488 1 1
178 1 14.2629 10.6971 0 0 0 0 1 3
179 1 16.0457 12.48 0 0 0 0 1 3
180 1 15.1543 11.5886 0.891429 0 0 0 1 2
181 1 16.8886 11.6013 2.71864 1.36318 1.732 -7.50092 1 1
182 1 15.1344 13.3804 2.70189 7.36649 6.23899 -5.53322 1 1
183 1 16.9371 13.3714 0.891429 0 0 0 1 2
184 1 17.8197 12.4922 1.83768 8.11434 0.975908 1.42235 1 1
185 1 19.5818 10.6839 1.83237 2.09438 2.00164 7.15494 1 1
186 1 17.8286 10.6971 0 0 0 0 1 3
187 1 19.6114 12.48 0 0 0 0 1 3
188 1 18.72 11.5886 0.891429 0 0 0 1 2
189 1 20.4804 11.6188 2.68443 -2.20382 2.48529 -3.81243 1 1
190 1 18.6985 13.443 2.71563 -3.4063 -13.9709 -4.89218 1 1
191 1 20.5029 13.3714 0.891429 0 0 0 1 2
192 1 19.5769 14.2995 1.81437 -4.49666 2.61848 4.56281 1 1
193 1 1.81068 14.2719 1.77208 -2.02251 4.3567 3.34645 1 1
194 1 0 14.2629 0 0 0 0 1 3
195 1 1.78286 16.0457 0 0 0 0 1 3
196 1 0.891429 15.1543 0.891429 0 0 0 1 2
197 1 0.882677 16.9708 2.65525 -10.4322 3.20257 9.34187 1 1
198 1 2.69202 15.1508 2.70611 1.56757 -0.874822 8.05259 1 1
199 1 2.67429 16.9371 0.891429 0 0 0 1 2
200 1 21.3885 16.0962 1.79056 5.57777 1.9067 4.55552 1 1
201 1 3.54616 16.0272 1.83554 7.02865 0.939277 5.9365 1 1
202 1 3.56572 14.2629 0 0 0 0 1 3
203 1 5.34857 16.0457 0 0 0 0 1 3
204 1 4.45714 15.1543 0.891429 0 0 0 1 2
205 1 4.46542 16.9241 2.69278 5.15886 1.64409 2.55971 1 1
206 1 6.23635 15.1195 2.63864 3.51227 6.06102 7.22855 1 1
207 1 6.24 16.9371 0.891429 0 0 0 1 2
208 1 7.09298 16.0246 1.78902 -3.14608 6.72276 6.26879 1 1
209 1 5.33489 17.8273 1.79795 -3.82971 4.02068 1.1193 1 1
210 1 8.89816 14.2866 1.80979 1.09048 -8.6609 -2.69137 1 1
211 1 7.13143 14.2629 0 0 0 0 1 3
212 1 8.02286 15.1543 0.891429 0 0 0 1 2
213 1 8.05605 16.9248 2.66814 -10.8343 -0.706232 4.27868 1 1
214 1 8.91429 16.0457 0 0 0 0 1 3
215 1 9.80154 15.1481 2.66796 2.48836 -8.73388 -1.57998 1 1
216 1 9.80572 16.9371 0.891429 0 0 0 1 2
217 1 8.89802 17.802 1.80363 1.09447 -4.16801 -1.79453 1 1
218 1 10.6888 16.0197 1.76189 -8.60806 6.95402 1.30489 1 1
219 1 10.6971 14.2629 0 0 0 0 1 3
220 1 12.48 16.0457 0 0 0 0 1 3
221 1 11.5886 15.1543 0.891429 0 0 0 1 2
222 1 11.5471 16.9169 2.66047 1.75159 -5.65286 4.11634 1 1
223 1 13.4025 15.1358 2.69262 8.57325 -2.58591 0.261343 1 1
224 1 13.3714 16.9371 0.891429 0 0 0 1 2
225 1 12.4323 17.815 1.7565 0.932681 -3.75583 -3.48707 1 1
226 1 16.0323 14.2678 1.77271 0.525531 -6.30929 -6.75741 1 1
227 1 14.2514 16.0412 1.75305 2.92099 1.61309 0.507392 1 1
228 1 14.2629 14.2629 0 0 0 0 1 3
229 1 16.0457 16.0457 0 0 0 0 1 3
230 1 15.1543 15.1543 0.891429 0 0 0 1 2
231 1 15.136 16.9706 2.67343 0.272676 -0.585014 3.25968 1 1
232 1 16.9321 15.1771 2.68433 0.452622 2.31577 -3.31031 1 1
233 1 16.9371 16.9371 0.891429 0 0 0 1 2
234 1 17.8194 16.0776 1.80257 5.76945 -2.58974 -3.16326 1 1
235 1 17.8286 14.2629 0 0 0 0 1 3
236 1 19.6114 16.0457 0 0 0 0 1 3
237 1 18.72 15.1543 0.891429 0 0 0 1 2
238 1 18.7347 16.956 2.68952 6.69371 -1.03542 3.5305 1 1
239 1 20.4647 15.1784 2.67546 2.86393 -0.0381094 0.516738 1 1
240 1 20.5029 16.9371 0.891429 0 0 0 1 2
241 1 19.6364 17.8254 1.79137 0.143984 8.49298 0.483508 1 1
242 1 1.76765 17.8227 1.77399 -1.90029 11.1853 0.887839 1 1
243 1 0 17.8286 0 0 0 0 1 3
244 1 1.78286 19.6114 0 0 0 0 1 3
245 1 0.891429 18.72 0.891429 0 0 0 1 2
246 1 0.867995 20.5022 2.62751 -3.7512 0.600961 0.00782643 1 1
247 1 2.68754 18.7021 2.62975 -9.846 3.75168 5.75292 1 1
248 1 2.67429 20.5029 0.891429 0 0 0 1 2
249 1 3.57088 19.6255 1.75727 6.99663 -0.165167 -0.871459 1 1
250 1 21.3998 19.6436 1.76014 7.01591 -9.16718 3.78483 1 1
251 1 5.32586 21.4226 1.74869 3.9903 -2.98491 3.45874 1 1
252 1 3.56572 17.8286 0 0 0 0 1 3
253 1 5.34857 19.6114 0 0 0 0 1 3
254 1 4.45714 18.72 0.891429 0 0 0 1 2
255 1 4.47694 20.5257 2.66994 -7.65192 0.970322 -1.79404 1 1
256 1 6.22358 18.6948 2.71178 -2.67927 -2.13298 2.44919 1 1
257 1 6.24 20.5029 0.891429 0 0 0 1 2
258 1 7.09484 19.6326 1.80237 -4.01202 -1.22551 5.91971 1 1
259 1 7.13143 17.8286 0 0 0 0 1 3
260 1 8.02286 18.72 0.891429 0 0 0 1 2
261 1 8.05894 20.502 2.65225 -1.36499 -0.634182 -1.84121 1 1
262 1 8.91429 19.6114 0 0 0 0 1 3
263 1 9.78391 18.7533 2.6798 7.30019 0.0214181 3.26842 1 1
264 1 9.80572 20.5029 0.891429 0 0 0 1 2
265 1 10.6981 19.6234 1.81435 1.00392 -0.995508 -4.60326 1 1
266 1 12.4913 -0.0655953 1.78091 6.19587 1.07639 -0.0242309 1 1
267 1 10.6971 17.8286 0 0 0 0 1 3
268 1 12.48 19.6114 0 0 0 0 1 3
269 1 11.5886 18.72 0.891429 0 0 0 1 2
270 1 11.5773 20.4792 2.65328 -2.30135 -6.6238 6.40762 1 1
271 1 13.3549 18.7433 2.66065 5.42927 -7.7364 0.950582 1 1
272 1 13.3714 20.5029 0.891429 0 0 0 1 2
273 1 14.2997 19.6008 1.74236 15.7954 -3.36456 3.30986 1 1
274 1 16.0958 17.8477 1.80405 -0.0433419 -2.14755 3.43641 1 1
275 1 14.2629 17.8286 0 0 0 0 1 3
276 1 16.0457 19.6114 0 0 0 0 1 3
277 1 15.1543 18.72 0.891429 0 0 0 1 2
278 1 15.1387 20.5009 2.65336 6.31491 -1.91711 -6.02008 1 1
279 1 16.9463 18.6937 2.6964 -1.82976 -2.80154 -3.84012 1 1
280 1 16.9371 20.5029 0.891429 0 0 0 1 2
281 1 19.608 -0.0230987 1.8039 -3.29156 -6.61855 -0.188975 1 1
282 1 17.8455 19.6125 1.80796 5.22746 2.86273 -2.125 1 1
283 1 17.8286 17.8286 0 0 0 0 1 3
284 1 19.6114 19.6114 0 0 0 0 1 3
285 1 18.72 18.72 0.891429 0 0 0 1 2
286 1 18.7369 20.4837 2.68567 9.95473 -1.23654 -0.709436 1 1
287 1 20.5355 18.772 2.70335 -2.22254 -1.0203 0.547426 1 1
288 1 20.5029 20.5029 0.891429 0 0 0 1 2
289 1 1.79589 1.74429 3.57676 -6.17583 0.877263 -0.092549 1 1
290 1 0.862959 0.841152 4.4617 -1.94817 -2.12148 2.21585 1 1
291 1 2.68911 2.66068 4.49615 -2.00165 -3.09604 1.4114 1 1
292 1 1.78377 21.3449 5.35301 0.0470587 -2.73638 4.9901 1 1
293 1 1.75976 3.53821 5.33592 -2.38356 1.49097 -7.30825 1 1
294 1 21.4309 1.72384 5.34294 -4.64872 -3.78162 -4.88775 1 1
295 1 0.000744291 -0.0496135 3.55477 0.0950822 1.72575 -7.13958 1 1
296 1 3.56364 1.77781 5.36474 10.8491 1.45209 -2.12007 1 1
297 1 5.32444 1.80858 3.52724 2.58207 5.3843 -6.91269 1 1
298 1 4.45907 0.882529 4.41999 0.979865 6.89434 4.67079 1 1
299 1 6.29969 0.859832 6.25275 -2.93302 -1.85456 -9.0735 1 1
300 1 6.25892 2.66633 4.46809 -1.36325 1.27412 -1.70578 1 1
301 1 3.57603 21.3678 3.54438 -4.18328 3.60146 -8.76799 1 1
302 1 7.14037 0.015657 3.53779 -3.94542 5.15696 -1.90772 1 1
303 1 5.38365 -0.0140219 5.33196 -7.84837 -0.660057 1.49914 1 1
304 1 7.09032 3.56081 3.58179 0.66015 3.0893 3.97205 1 1
305 1 7.09978 1.76168 5.33848 2.61998 -8.60651 -0.418296 1 1
306 1 8.95043 1.83535 3.53461 -0.67179 5.76776 -1.36306 1 1
307 1 8.0684 0.925767 4.43342 -2.15812 -8.69051 -2.75983 1 1
308 1 8.05373 2.67848 6.2595 5.82315 -6.67976 -4.58794 1 1
309 1 9.79356 0.927607 6.24662 -1.33402 3.95462 2.73023 1 1
310 1 9.80532 2.67393 4.41644 4.14358 6.75977 -4.62067 1 1
311 1 10.7061 1.77308 5.31596 4.59936 5.74751 3.99726 1 1
312 1 12.4456 1.74472 3.52676 12.668 -2.33372 0.884735 1 1
313 1 11.6197 0.882856 4.45678 3.28166 -5.52925 -1.37854 1 1
314 1 11.5156 2.66586 6.24938 -2.84744 10.4571 -4.62521 1 1
315 1 13.3696 2.64214 4.42653 -0.924905 3.58824 -4.36226 1 1
316 1 13.3614 0.921255 6.26656 -3.21308 6.4615 3.36396 1 1
317 1 12.501 3.52745 5.34951 -2.76848 -4.27365 -1.4504 1 1
318 1 14.2564 1.76282 5.36465 7.17373 -2.86961 -3.05396 1 1
319 1 12.4548 0.0250016 5.38147 0.904606 1.02147 -8.67164 1 1
320 1 14.2557 3.57319 3.52875 2.09614 -2.78168 6.97302 1 1
321 1 16.0691 1.83717 3.54365 3.87418 2.30295 1.21078 1 1
322 1 15.2397 0.867725 4.47807 3.78021 3.40683 3.17746 1 1
323 1 15.1393 2.57358 6.24147 -4.12534 -7.00669 3.20615 1 1
324 1 16.9394 2.69677 4.45945 7.23324 5.02897 7.27667 1 1
325 1 17.8139 1.82832 5.34627 7.34943 -6.79217 1.25176 1 1
326 1 16.0844 21.374 5.39894 4.7735 5.0869 1.12268 1 1
327 1 19.6607 1.78823 3.59745 -6.60989 2.01933 -3.89605 1 1
328 1 18.7122 0.938155 4.47452 -5.23377 -3.88705 1.77503 1 1
329 1 20.5212 2.6516 4.4889 -0.846904 -0.558109 3.68216 1 1
330 1 17.8544 0.0253766 3.55785 -5.47958 3.04542 -1.8594 1 1
331 1 19.5919 -0.0287175 5.38672 12.7278 2.48768 -3.40942 1 1
332 1 0.0507234 3.58462 3.58019 -6.97056 1.13312 -2.696 1 1
333 1 1.74052 5.29989 3.5563 -6.9219 -2.47521 -4.77767 1 1
334 1 0.863133 4.41581 4.43666 1.72155 -3.96424 -7.43393 1 1
335 1 2.66495 4.43976 6.28257 -5.11397 -7.01214 6.34595 1 1
336 1 2.65507 6.20532 4.49802 -5.20301 -4.82235 -1.33913 1 1
337 1 3.55647 3.55619 3.61936 0.01327 -5.13588 6.33486 1 1
338 1 21.42 5.28209 5.38748 -3.79709 -8.12844 6.63323 1 1
339 1 3.54945 5.2988 5.36065 6.84381 -1.44233 -6.24262 1 1
340 1 5.38595 3.53173 5.36181 7.23072 -2.99059 -2.61499 1 1
341 1 5.34987 5.33886 3.5825 4.15016 2.78469 6.69744 1 1
342 1 4.4266 4.41891 4.48781 -2.96543 0.319218 2.93426 1 1
343 1 4.44265 6.2443 6.26326 -3.7063 0.0968822 -6.66025 1 1
344 1 6.22935 6.24575 4.4594 -4.53431 1.42325 0.080701 1 1
345 1 7.09742 5.35758 5.37274 -1.07181 0.719402 -2.12624 1 1
346 1 5.31228 7.14118 5.33137 3.2836 2.89574 -2.25855 1 1
347 1 6.24572 4.44516 6.23739 2.83107 -10.226 -3.84503 1 1
348 1 8.89027 3.59894 5.32378 -2.46078 -2.60722 -0.188903 1 1
349 1 10.6601 3.5808 3.56553 0.209431 -3.01962 1.19109 1 1
350 1 8.85185 5.36695 3.53572 10.9225 2.97699 -3.74213 1 1
351 1 7.99018 4.46808 4.47456 2.16153 9.19392 1.00461 1 1
352 1 7.9709 6.26099 6.22213 -7.47456 -7.98242 -6.70065 1 1
353 1 9.76692 4.46353 6.21258 -2.23947 5.0768 3.77648 1 1
354 1 9.77604 6.24864 4.45837 1.25137 5.89653 -0.543314 1 1
355 1 10.6983 5.36208 5.35701 -3.54123 4.88135 2.11515 1 1
356 1 12.4609 5.30935 3.6193 -4.46174 0.0191505 -4.15767 1 1
357 1 11.6424 4.41503 4.46294 2.45767 6.84274 0.25907 1 1
358 1 13.3326 6.20491 4.50732 0.950917 0.231134 -3.17965 1 1
359 1 14.2712 5.32132 5.40102 -2.57673 5.10028 -9.61898 1 1
360 1 16.0119 3.50688 5.3701 7.63656 -1.93006 2.10282 1 1
361 1 17.8264 3.55914 3.62531 -8.09188 -7.60704 2.42102 1 1
362 1 16.1109 5.33268 3.58831 -4.57348 4.52688 3.74067 1 1
363 1 15.2001 4.40583 4.4637 0.567037 0.799673 9.34861 1 1
364 1 16.9687 6.16704 4.54333 -5.03563 -10.4555 -6.53968 1 1
365 1 16.9298 4.37913 6.30359 -1.92765 6.62158 -1.38211 1 1
366 1 16.0579 7.07583 5.39224 -3.89932 2.40096 -1.18523 1 1
367 1 15.2171 6.22205 6.28047 -5.33405 8.57991 -6.6852 1 1
368 1 19.6298 3.52714 5.38608 5.63151 -2.22115 4.25163 1 1
369 1 17.803 5.27824 5.43676 0.993886 -4.39606 -3.32038 1 1
370 1 19.586 5.28581 3.5922 3.31626 -3.68543 -1.75237 1 1
371 1 18.7238 4.4509 4.50144 6.24079 -7.16741 2.1493 1 1
372 1 20.4781 4.4001 6.24158 -1.47637 0.797215 6.64373 1 1
373 1 20.5468 6.16839 4.47781 3.19798 -10.996 -1.99194 1 1
374 1 19.6201 7.04873 5.4043 7.44037 -9.13745 1.73358 1 1
375 1 21.4094 7.09729 3.60253 -4.51647 6.22798 0.792308 1 1
376 1 1.76127 7.12013 5.3498 -6.12076 -0.0593698 1.02923 1 1
377 1 1.75889 8.88296 3.6169 1.13976 2.89338 5.89555 1 1
378 1 0.83711 7.9903 4.47815 -3.63121 2.4966 -0.00390156 1 1
379 1 2.65749 7.98665 6.2418 -2.38898 3.82867 1.97054 1 1
380 1 0.835512 9.7609 6.27472 0.677233 0.729693 5.26859 1 1
381 1 2.63272 9.81661 4.5195 -4.26703 -12.0703 -4.00777 1 1
382 1 21.3612 8.88202 5.38266 -1.53602 0.122005 2.68316 1 1
383 1 1.74648 10.6856 5.41498 -1.90647 -0.952237 2.04646 1 1
384 1 3.56905 7.09352 3.5682 -5.20025 -0.619033 -1.85628 1 1
385 1 7.09023 7.13845 3.62979 -6.95008 -5.25648 -2.87475 1 1
386 1 3.54625 10.7014 3.57889 -8.79875 -8.8044 5.18597 1 1
387 1 3.58576 8.93543 5.36685 -5.03914 -4.22196 -6.89309 1 1
388 1 5.32245 8.92079 3.58377 1.45784 -4.98846 0.392904 1 1
389 1 4.46434 8.01999 4.49981 -2.26608 4.45403 8.9224 1 1
390 1 4.45786 9.79515 6.32491 -6.69761 -3.54871 -4.98506 1 1
391 1 6.20997 9.8048 4.52626 -3.30002 5.28774 2.19229 1 1
392 1 8.87153 7.14206 5.32658 -3.05581 -0.917718 2.95979 1 1
393 1 7.16493 8.91258 5.37371 -2.16959 -2.87161 7.84929 1 1
394 1 8.89988 8.92454 3.60731 1.50673 6.32007 -4.52856 1 1
395 1 7.99464 8.05352 4.46594 1.7292 -5.54747 6.03375 1 1
396 1 9.74567 9.79566 4.50131 0.87114 -3.79716 -0.993491 1 1
397 1 10.6096 8.8672 5.40582 -1.72879 1.96331 -0.567258 1 1
398 1 10.7144 10.6772 3.59534 -0.198639 3.04429 -0.984365 1 1
399 1 9.76884 8.01633 6.26278 -5.99623 4.2142 3.43238 1 1
400 1 12.4072 7.10938 5.36299 -0.0286414 6.40408 0.717219 1 1
401 1 10.6564 7.10452 3.59545 -1.89517 -1.18249 -6.93735 1 1
402 1 12.4687 8.95956 3.59723 -6.36475 5.15537 8.66307 1 1
403 1 11.5548 8.0134 4.53587 -5.06439 -1.37383 0.935602 1 1
404 1 13.3574 9.81401 4.49551 -3.11717 2.66674 5.27278 1 1
405 1 14.1984 7.0983 3.56221 3.55065 2.57425 -2.504 1 1
406 1 14.2119 8.88586 5.36332 -1.96022 -6.82887 -1.1469 1 1
407 1 17.8201 7.14466 3.57806 5.37538 -2.85481 0.165789 1 1
408 1 16.0229 8.93226 3.61457 -3.2134 -4.81617 7.99439 1 1
409 1 15.1147 7.98503 4.48817 3.02119 -0.0660376 -0.0212176 1 1
410 1 16.8937 9.84093 4.54126 -0.952437 7.66197 10.694 1 1
411 1 16.019 10.7302 5.39436 -0.457062 1.29142 2.54473 1 1
412 1 16.9217 7.9813 6.33482 -6.23932 -7.37079 -0.0107164 1 1
413 1 17.7922 8.90758 5.39772 -0.300265 3.07171 6.80221 1 1
414 1 19.5968 8.90683 3.60349 3.90291 5.09164 -7.16637 1 1
415 1 18.728 7.99577 4.52743 4.9654 0.817694 2.36806 1 1
416 1 18.6688 9.78497 6.26589 -0.0793742 5.84124 2.07173 1 1
417 1 20.4743 9.78774 4.53225 -2.81799 -4.44494 -5.26365 1 1
418 1 20.4584 7.94009 6.29861 1.24338 3.87064 -0.761826 1 1
419 1 19.5667 10.7021 5.35974 5.32723 2.96965 -3.03992 1 1
420 1 21.3635 10.713 3.59952 2.13291 -7.65043 -0.548117 1 1
421 1 1.81268 12.5013 3.54996 0.965044 -1.8405 -0.558941 1 1
422 1 0.914498 11.5656 4.49772 -1.76762 0.772657 -1.96424 1 1
423 1 2.61058 11.5517 6.32529 -6.14451 4.54931 -2.7973 1 1
424 1 0.894698 13.3753 6.29212 2.98075 -3.30923 -3.05108 1 1
425 1 2.70732 13.3517 4.47458 1.51542 -8.40592 3.93881 1 1
426 1 21.4313 12.4697 5.37074 -5.6163 2.37791 0.762847 1 1
427 1 5.32254 10.7197 5.42145 -8.93466 1.63893 5.68687 1 1
428 1 3.58905 14.25 3.60986 4.44706 3.67439 -0.740237 1 1
429 1 3.56834 12.4761 5.39072 -5.00202 -4.27567 7.77546 1 1
430 1 5.34463 12.444 3.59808 4.78957 -4.64183 0.262999 1 1
431 1 4.4608 11.6026 4.48731 5.99749 5.62193 -2.1023 1 1
432 1 6.2412 13.3475 4.47746 -3.43357 -3.03012 8.31434 1 1
433 1 7.14724 14.2765 3.56789 -6.44572 -0.605963 -1.47691 1 1
434 1 6.23351 11.5765 6.27605 -0.743845 3.74756 3.38565 1 1
435 1 7.10723 10.6843 3.59665 -7.59843 -0.118972 2.46567 1 1
436 1 7.16085 12.4346 5.35844 -9.22429 -2.11244 2.29835 1 1
437 1 8.93586 10.7013 5.42289 -4.68431 5.87366 -0.143992 1 1
438 1 8.91499 12.5061 3.583 1.7124 -6.02459 -2.99143 1 1
439 1 8.03787 11.5638 4.49615 0.855441 -6.1821 -7.69665 1 1
440 1 9.82908 11.5937 6.30037 -0.312803 -1.94252 -1.68951 1 1
441 1 8.00348 13.3954 6.27949 -6.82367 0.378491 12.7704 1 1
442 1 9.77129 13.3661 4.47032 1.54399 5.05531 2.8156 1 1
443 1 10.7206 14.2796 3.55218 0.15404 -4.81414 5.51255 1 1
444 1 12.4176 10.6754 5.37187 -4.71023 -6.4939 4.72999 1 1
445 1 10.6955 12.4953 5.39704 2.04942 -1.69119 0.73111 1 1
446 1 12.4935 12.4497 3.60586 12.0112 -7.04853 5.80321 1 1
447 1 11.5389 11.5968 4.46832 3.97592 0.282632 -2.26906 1 1
448 1 13.3039 11.5898 6.26562 0.117981 0.332201 3.11818 1 1
449 1 11.6227 13.3408 6.2647 -3.46077 -0.375855 -4.57086 1 1
450 1 13.3295 13.3452 4.48775 -5.0907 -1.42007 7.28343 1 1
451 1 14.2333 10.7713 3.61369 -6.26732 -0.419984 -4.20452 1 1
452 1 14.1826 12.4764 5.38308 1.84979 5.17734 1.45186 1 1
453 1 16.0237 12.5033 3.62949 -6.61081 10.2975 -2.90944 1 1
454 1 15.1238 11.6252 4.51753 -5.57573 3.21563 5.96178 1 1
455 1 16.9184 11.632 6.26712 0.75285 2.57711 -1.44314 1 1
456 1 16.9337 13.3995 4.48847 -5.2781 -9.84013 -1.14195 1 1
457 1 17.7956 12.529 5.38616 -3.24155 -2.21805 0.581567 1 1
458 1 15.0871 13.3652 6.22307 0.787735 -7.5289 -0.389763 1 1
459 1 17.7608 10.7124 3.61812 -3.73152 0.642258 6.67646 1 1
460 1 19.6136 12.5525 3.55239 3.66559 -1.80732 -1.92768 1 1
461 1 18.6686 11.65 4.45659 -2.89101 2.93014 0.400741 1 1
462 1 18.7098 13.4054 6.26697 1.29868 0.884891 -1.73999 1 1
463 1 20.4742 13.4277 4.49993 4.7906 3.496 -1.88013 1 1
464 1 20.4436 11.5957 6.28435 -1.88738 -0.0875252 4.46858 1 1
465 1 1.79128 14.274 5.37249 -0.285271 4.13738 2.33379 1 1
466 1 1.78962 16.052 3.58016 -0.88834 0.766076 0.856591 1 1
467 1 0.915974 15.2134 4.44843 -7.62358 3.27829 -2.68203 1 1
468 1 2.69894 15.1947 6.25903 0.729968 2.41301 9.55255 1 1
469 1 2.65669 16.9638 4.47671 -2.61351 -4.3981 -1.18084 1 1
470 1 0.0538144 16.0965 5.33762 -3.34162 -7.17349 -2.47827 1 1
471 1 21.3914 14.3297 3.60537 4.52552 -5.04399 -9.74742 1 1
472 1 1.84141 17.8663 5.33011 1.38268 2.32748 1.90237 1 1
473 1 5.34458 14.25 5.41289 7.90491 -2.62761 4.5438 1 1
474 1 3.59193 16.0984 5.38762 -2.12951 2.53469 3.14251 1 1
475 1 5.31852 15.9991 3.58382 -1.44364 2.02486 8.03671 1 1
476 1 4.4513 15.1159 4.49355 -0.345592 -5.20531 -5.37494 1 1
477 1 4.49767 16.9636 6.28473 5.39965 -7.59739 1.61864 1 1
478 1 6.25893 15.1675 6.30394 -9.80667 5.81265 3.21936 1 1
479 1 6.22371 16.9327 4.46119 -0.823595 2.23416 -1.19383 1 1
480 1 7.18411 16.0412 5.36596 7.66712 -2.92507 -0.448529 1 1
481 1 8.90159 14.2483 5.39211 -0.52275 -0.280466 -0.657623 1 1
482 1 8.91026 16.0545 3.61637 3.56244 -0.486873 -1.70171 1 1
483 1 8.04773 15.1822 4.46815 4.97159 5.42438 3.28029 1 1
484 1 8.05193 16.931 6.2457 1.24885 -3.85938 -9.42408 1 1
485 1 9.81967 15.1347 6.2149 4.8337 2.03367 3.66514 1 1
486 1 9.83975 16.9679 4.47829 -4.19032 -7.71424 -3.55784 1 1
487 1 10.6853 16.0613 5.30749 0.327759 4.1165 -7.69814 1 1
488 1 8.93604 17.8484 5.35035 5.70536 -7.03919 2.09363 1 1
489 1 10.7336 17.8594 3.5823 2.79311 -1.51988 -4.35888 1 1
490 1 12.4861 14.2539 5.33352 -3.31845 10.2714 -4.50187 1 1
491 1 12.5037 16.0678 3.57169 -5.65679 2.07544 -5.50334 1 1
492 1 11.5969 15.1616 4.4248 -2.19656 -0.0355876 3.86799 1 1
493 1 11.5981 16.905 6.26084 -4.91392 4.64439 -1.03738 1 1
494 1 13.3238 16.9584 4.4895 2.83739 -8.83536 1.52577 1 1
495 1 13.3284 15.156 6.27408 2.09243 -1.50106 4.83505 1 1
496 1 12.5002 17.8413 5.41684 -6.70644 -6.57316 -1.03368 1 1
497 1 14.2477 14.2147 3.60284 -7.39807 -3.88845 -0.333814 1 1
498 1 15.9932 14.2802 5.33747 -6.44071 5.52893 -4.83939 1 1
499 1 17.8046 14.3216 3.53146 0.698913 0.0366471 4.30522 1 1
500 1 14.2154 16.0729 5.39496 -2.1443 -4.44449 -9.62014 1 1
501 1 14.223 17.7876 3.58604 1.03935 -11.3774 0.437866 1 1
502 1 16.0324 16.0448 3.56235 -3.46483 -4.51437 -4.50276 1 1
503 1 15.1109 15.1909 4.49264 4.01923 -3.93287 1.42716 1 1
504 1 16.9014 16.9376 4.48716 -1.64427 -4.47915 1.09255 1 1
505 1 16.9317 15.1666 6.26966 -3.16354 0.142272 -0.0135011 1 1
506 1 17.8221 16.0912 5.3829 -3.04469 9.19479 1.14909 1 1
507 1 19.6183 14.2838 5.3472 0.206714 2.52435 -5.34527 1 1
508 1 19.6113 16.0947 3.59168 -2.19518 -0.206998 -2.09523 1 1
509 1 18.6653 15.2097 4.471 4.0346 1.2628 10.0533 1 1
510 1 20.5245 16.9534 4.50517 3.79166 0.470175 -3.36734 1 1
511 1 19.6245 17.8356 5.35255 2.84274 2.73772 -10.614 1 1
512 1 20.5131 15.1835 6.26622 0.56398 1.79443 9.08075 1 1
513 1 1.75559 19.6106 3.5501 -1.64499 -0.417395 -3.42376 1 1
514 1 0.899095 18.7134 4.45911 1.06171 -2.40528 13.8039 1 1
515 1 0.872012 20.4585 6.2673 7.90431 12.7916 0.852954 1 1
516 1 2.65839 20.4945 4.44885 2.78575 1.81283 1.40416 1 1
517 1 -0.00495623 17.8367 3.56419 9.07219 -2.1838 -5.66838 1 1
518 1 -0.0696267 19.6027 5.35489 -4.60079 -4.28931 6.51943 1 1
519 1 2.70156 18.7217 6.21844 6.27298 1.80017 0.366247 1 1
520 1 5.3569 17.8215 5.2833 3.78143 3.626 -3.50458 1 1
521 1 3.56638 17.8495 3.53418 -3.73631 -0.159785 -3.38505 1 1
522 1 3.5342 19.5883 5.33972 -9.47585 -4.66665 3.89979 1 1
523 1 5.35964 19.6331 3.54867 -2.71024 6.60584 -1.34655 1 1
524 1 4.43863 18.7658 4.4179 -1.2091 -2.56401 -1.61346 1 1
525 1 4.47727 20.4796 6.22751 -0.626366 -10.294 6.13476 1 1
526 1 6.28334 18.7177 6.22539 5.22141 5.00925 0.942565 1 1
527 1 6.22686 20.4835 4.46265 -0.690643 -4.26623 0.753447 1 1
528 1 7.15269 17.8066 3.59187 2.02957 5.42149 2.81851 1 1
529 1 7.1598 19.5975 5.38435 5.57238 -1.77789 -6.70908 1 1
530 1 8.91111 21.427 5.34358 -1.36172 4.11491 2.83836 1 1
531 1 8.94121 19.6265 3.55038 -1.11206 1.77201 8.9247 1 1
532 1 8.04104 18.7214 4.4409 3.24019 -3.75575 -3.73211 1 1
533 1 8.06585 20.5448 6.26289 -6.29213 6.35309 -3.13033 1 1
534 1 9.77846 18.7549 6.26986 -4.78906 6.18021 2.20967 1 1
535 1 9.81701 20.5282 4.43153 4.41494 -4.08538 -4.04723 1 1
536 1 10.7045 19.6305 5.39122 -7.29898 -7.78987 0.688816 1 1
537 1 10.7195 0.0130058 3.54941 10.9791 -2.19187 -5.55349 1 1
538 1 12.5136 19.6131 3.56723 6.87453 -10.1796 -7.15502 1 1
539 1 11.615 18.7218 4.50991 0.778933 0.183285 -6.45304 1 1
540 1 13.3771 18.7644 6.279 0.646168 -0.285758 -2.26007 1 1
541 1 13.4137 20.5053 4.51175 4.71297 -2.28006 -2.10111 1 1
542 1 15.9875 17.7786 5.39803 1.04101 2.65602 -3.55459 1 1
543 1 14.2736 -0.0407185 3.57804 -8.56414 2.78186 2.91741 1 1
544 1 14.2689 19.5768 5.36948 0.0784908 3.13076 5.23062 1 1
545 1 16.0169 19.6299 3.54256 6.87844 -0.521678 -2.38775 1 1
546 1 15.1222 18.6836 4.49825 -2.69227 -4.17068 2.47345 1 1
547 1 16.9294 18.7272 6.24464 4.70343 0.196623 6.50782 1 1
548 1 16.9695 20.5109 4.45303 3.55453 1.68983 0.534011 1 1
549 1 17.8149 19.6014 5.33637 5.95269 -5.06082 1.24646 1 1
550 1 17.8234 17.8098 3.58199 4.04391 -1.80843 -3.89386 1 1
551 1 19.6523 19.5971 3.56121 -1.56442 2.28339 -0.962865 1 1
552 1 18.7511 18.7076 4.44652 -6.19671 3.97782 4.608 1 1
553 1 18.7202 20.5147 6.24864 -7.03059 -4.74651 2.72368 1 1
554 1 20.4797 18.7118 6.23987 -6.41879 -11.203 4.85009 1 1
555 1 20.4866 20.4857 4.43752 -7.06642 5.95686 2.77323 1 1