ITEM: TIMESTEP
1950
ITEM: NUMBER OF ATOMS
2952
ITEM: BOX BOUNDS pp pp mm
0.0000000000000000e+00 2.1394294200000001e+01
0.0000000000000000e+00 2.1394294200000001e+01
-4.4571446250000002e-01 5.3485735500000004e+01
ITEM: ATOMS id type x y z vx vy vz v_is_diamond c_structure_type
1 1 0 0 0 0 0 0 1 3
2 1 1.78286 1.78286 0 0 0 0 1 3
3 1 0.891429 0.891429 0.891429 0 0 0 1 2
4 1 0.875326 2.66897 2.63327 -7.88363 3.69698 -1.85059 1 1
5 1 2.68511 0.904013 2.69223 5.10393 -7.84076 0.0373211 1 1
6 1 2.67429 2.67429 0.891429 0 0 0 1 2
7 1 0.00561919 1.74528 1.75738 -2.75184 -6.0819 0.829111 1 1
8 1 1.8197 21.4171 1.74216 -1.18832 8.05945 -5.64309 1 1
9 1 1.78677 3.52183 1.73761 -1.48634 -1.49377 -15.0596 1 1
10 1 3.58966 1.81028 1.78119 -4.05755 10.6096 0.421801 1 1
11 1 3.56572 0 0 0 0 0 1 3
12 1 5.34857 1.78286 0 0 0 0 1 3
13 1 4.45714 0.891429 0.891429 0 0 0 1 2
14 1 4.46338 2.71144 2.65696 4.56976 -1.93688 0.398065 1 1
15 1 6.21076 0.897107 2.70156 1.93215 -2.88675 4.21943 1 1
16 1 6.24 2.67429 0.891429 0 0 0 1 2
17 1 7.08824 1.79483 1.77694 2.67888 -4.63847 -3.94508 1 1
18 1 7.13143 0 0 0 0 0 1 3
19 1 8.02286 0.891429 0.891429 0 0 0 1 2
20 1 8.0121 2.63492 2.64467 2.4431 2.24127 2.08912 1 1
21 1 8.91429 1.78286 0 0 0 0 1 3
22 1 9.78462 0.880723 2.69312 -5.2763 3.68781 3.63005 1 1
23 1 9.80572 2.67429 0.891429 0 0 0 1 2
24 1 8.90031 21.3648 1.81241 -7.65634 11.3201 2.5146 1 1
25 1 10.7063 1.74354 1.78153 -6.05262 -4.23128 -0.0780128 1 1
26 1 10.6971 0 0 0 0 0 1 3
27 1 12.48 1.78286 0 0 0 0 1 3
28 1 11.5886 0.891429 0.891429 0 0 0 1 2
29 1 11.5878 2.66895 2.73478 5.1003 0.919017 -2.29819 1 1
30 1 13.373 0.893752 2.6981 6.63849 6.89343 -0.397146 1 1
31 1 13.3714 2.67429 0.891429 0 0 0 1 2
32 1 14.2527 1.77279 1.76981 -5.45719 -0.479079 -1.52646 1 1
33 1 14.2629 0 0 0 0 0 1 3
34 1 16.0457 1.78286 0 0 0 0 1 3
35 1 15.1543 0.891429 0.891429 0 0 0 1 2
36 1 15.1598 2.68825 2.68406 -4.66505 -4.76307 -0.136379 1 1
37 1 16.9169 0.965214 2.68381 3.27119 -5.47539 -0.519193 1 1
38 1 16.9371 2.67429 0.891429 0 0 0 1 2
39 1 16.067 21.439 1.82043 0.448464 14.101 3.19263 1 1
40 1 17.799 1.81038 1.78504 0.893322 12.9681 -4.41099 1 1
41 1 17.8286 0 0 0 0 0 1 3
42 1 19.6114 1.78286 0 0 0 0 1 3
43 1 18.72 0.891429 0.891429 0 0 0 1 2
44 1 18.6816 2.66875 2.69934 8.19108 -1.49195 -3.42043 1 1
45 1 20.5035 0.884947 2.66559 2.53905 0.419003 -2.45385 1 1
46 1 20.5029 2.67429 0.891429 0 0 0 1 2
47 1 0 3.56572 0 0 0 0 1 3
48 1 1.78286 5.34857 0 0 0 0 1 3
49 1 0.891429 4.45714 0.891429 0 0 0 1 2
50 1 0.838291 6.24761 2.71405 -1.8855 6.38273 -6.31738 1 1
51 1 2.67107 4.44308 2.64753 4.63307 3.58273 -12.6268 1 1
52 1 2.67429 6.24 0.891429 0 0 0 1 2
53 1 3.57206 5.3514 1.75955 -3.95694 1.05205 11.2707 1 1
54 1 5.33307 3.61832 1.76608 -3.61362 3.61475 2.43434 1 1
55 1 3.56572 3.56572 0 0 0 0 1 3
56 1 5.34857 5.34857 0 0 0 0 1 3
57 1 4.45714 4.45714 0.891429 0 0 0 1 2
58 1 4.41905 6.24698 2.68865 -2.07944 -1.25718 -1.93412 1 1
59 1 6.23264 4.46797 2.71416 1.08963 -2.26417 0.360558 1 1
60 1 6.24 6.24 0.891429 0 0 0 1 2
61 1 5.35256 7.12344 1.77955 -2.00171 -1.47308 -0.642388 1 1
62 1 7.1308 5.37358 1.78595 -0.845694 0.202669 3.73015 1 1
63 1 7.13143 3.56572 0 0 0 0 1 3
64 1 8.90416 3.53734 1.77837 7.96065 2.48633 0.177137 1 1
65 1 8.02286 4.45714 0.891429 0 0 0 1 2
66 1 8.01375 6.23217 2.68421 -0.589059 6.33091 2.76061 1 1
67 1 8.91429 5.34857 0 0 0 0 1 3
68 1 9.78809 4.44879 2.71054 -6.11463 0.510249 0.504321 1 1
69 1 9.80572 6.24 0.891429 0 0 0 1 2
70 1 10.7093 5.32898 1.7921 0.771888 -4.28 -5.00572 1 1
71 1 12.4869 3.57275 1.807 2.35001 1.07197 -6.93295 1 1
72 1 10.6971 3.56572 0 0 0 0 1 3
73 1 12.48 5.34857 0 0 0 0 1 3
74 1 11.5886 4.45714 0.891429 0 0 0 1 2
75 1 11.595 6.1982 2.67587 2.71353 4.5787 6.83046 1 1
76 1 13.3396 4.44395 2.7058 0.173507 -12.502 -6.58614 1 1
77 1 13.3714 6.24 0.891429 0 0 0 1 2
78 1 14.2533 5.34385 1.76546 -2.17105 1.26286 3.5085 1 1
79 1 16.0754 3.61202 1.77776 7.00732 -0.690344 -2.63971 1 1
80 1 14.2629 3.56572 0 0 0 0 1 3
81 1 16.0457 5.34857 0 0 0 0 1 3
82 1 15.1543 4.45714 0.891429 0 0 0 1 2
83 1 15.1527 6.24335 2.71537 -3.48047 -1.38594 3.52514 1 1
84 1 16.8972 4.50883 2.72091 3.80051 2.09055 -0.644422 1 1
85 1 16.9371 6.24 0.891429 0 0 0 1 2
86 1 17.818 5.32317 1.8046 -8.32477 1.5089 -1.05174 1 1
87 1 19.5536 3.57607 1.80033 5.13998 -4.94523 4.13973 1 1
88 1 -0.0276989 5.3635 1.77106 -2.09668 -3.83508 1.26992 1 1
89 1 17.8286 3.56572 0 0 0 0 1 3
90 1 19.6114 5.34857 0 0 0 0 1 3
91 1 18.72 4.45714 0.891429 0 0 0 1 2
92 1 18.7185 6.24986 2.67774 -2.28165 4.68791 -0.00864166 1 1
93 1 20.5119 4.44935 2.71609 4.18715 2.3652 0.438239 1 1
94 1 20.5029 6.24 0.891429 0 0 0 1 2
95 1 19.6494 7.1129 1.8014 -4.41839 0.218465 -0.565936 1 1
96 1 1.75086 7.09429 1.78482 -2.70319 -5.76819 -8.44993 1 1
97 1 0 7.13143 0 0 0 0 1 3
98 1 0.891429 8.02286 0.891429 0 0 0 1 2
99 1 2.68426 7.96656 2.68219 -6.06386 0.951045 -1.0209 1 1
100 1 1.78286 8.91429 0 0 0 0 1 3
101 1 0.900625 9.81551 2.67531 -4.27737 5.37531 -0.939856 1 1
102 1 2.67429 9.80572 0.891429 0 0 0 1 2
103 1 1.76883 10.7076 1.78964 -6.03591 -4.26518 -3.38998 1 1
104 1 3.60415 8.88073 1.74854 2.03932 4.60465 -5.64172 1 1
105 1 3.56572 7.13143 0 0 0 0 1 3
106 1 4.45714 8.02286 0.891429 0 0 0 1 2
107 1 6.22668 7.9861 2.68449 -0.0287983 -5.21072 -5.12173 1 1
108 1 5.34857 8.91429 0 0 0 0 1 3
109 1 4.41845 9.76295 2.66311 -1.64773 -1.37077 2.65045 1 1
110 1 6.24 9.80572 0.891429 0 0 0 1 2
111 1 7.1327 8.88508 1.8127 -1.90598 1.14766 5.68006 1 1
112 1 8.93862 7.13518 1.79074 11.2577 -9.00128 5.41595 1 1
113 1 7.13143 7.13143 0 0 0 0 1 3
114 1 8.02286 8.02286 0.891429 0 0 0 1 2
115 1 9.81722 8.01503 2.67882 -7.6498 1.88069 -4.88587 1 1
116 1 8.00242 9.79312 2.68639 1.76057 -5.35248 -5.78048 1 1
117 1 8.91429 8.91429 0 0 0 0 1 3
118 1 9.80572 9.80572 0.891429 0 0 0 1 2
119 1 10.6834 8.91412 1.7755 1.58592 7.77361 2.91947 1 1
120 1 12.481 7.07524 1.82167 0.442478 -1.41651 5.2523 1 1
121 1 10.6971 7.13143 0 0 0 0 1 3
122 1 11.5886 8.02286 0.891429 0 0 0 1 2
123 1 13.3815 7.96872 2.7043 -4.14197 -12.9773 -0.00479864 1 1
124 1 12.48 8.91429 0 0 0 0 1 3
125 1 11.5932 9.80448 2.65172 3.65253 0.259169 -1.91808 1 1
126 1 13.3714 9.80572 0.891429 0 0 0 1 2
127 1 12.4785 10.7014 1.79643 -1.00752 2.22022 5.78297 1 1
128 1 16.0304 7.12344 1.81528 -2.41429 0.649685 1.42785 1 1
129 1 14.2702 8.87894 1.79895 2.4922 0.13541 3.20011 1 1
130 1 14.2629 7.13143 0 0 0 0 1 3
131 1 15.1543 8.02286 0.891429 0 0 0 1 2
132 1 16.9132 7.9918 2.70699 -4.90171 -5.34164 5.60771 1 1
133 1 16.0457 8.91429 0 0 0 0 1 3
134 1 15.1235 9.79136 2.6862 -1.04025 3.09313 -1.9996 1 1
135 1 16.9371 9.80572 0.891429 0 0 0 1 2
136 1 16.0171 10.6675 1.80519 2.58635 5.29225 -2.66406 1 1
137 1 17.7905 8.89688 1.80689 6.45347 1.44902 -1.66306 1 1
138 1 0.00868745 8.91928 1.77476 0.370403 -3.05513 -3.36202 1 1
139 1 17.8286 7.13143 0 0 0 0 1 3
140 1 18.72 8.02286 0.891429 0 0 0 1 2
141 1 20.5255 8.06255 2.69142 3.4944 -5.96023 3.18146 1 1
142 1 19.6114 8.91429 0 0 0 0 1 3
143 1 18.7083 9.80543 2.69275 2.01934 1.48985 -1.62185 1 1
144 1 20.5029 9.80572 0.891429 0 0 0 1 2
145 1 0 10.6971 0 0 0 0 1 3
146 1 1.78286 12.48 0 0 0 0 1 3
147 1 0.891429 11.5886 0.891429 0 0 0 1 2
148 1 2.65831 11.5823 2.68812 1.20939 -6.50868 0.00319688 1 1
149 1 0.907619 13.3667 2.63963 -0.161435 -0.293238 -4.48832 1 1
150 1 2.67429 13.3714 0.891429 0 0 0 1 2
151 1 0.0103413 12.4924 1.71447 -2.68767 1.80801 1.25129 1 1
152 1 5.35011 10.7284 1.8086 -2.38225 -6.46547 6.43673 1 1
153 1 3.57288 12.5125 1.75684 0.217095 1.53527 -5.73878 1 1
154 1 3.56572 10.6971 0 0 0 0 1 3
155 1 5.34857 12.48 0 0 0 0 1 3
156 1 4.45714 11.5886 0.891429 0 0 0 1 2
157 1 6.25315 11.6018 2.70183 -4.78431 1.74999 2.58652 1 1
158 1 4.46264 13.3807 2.70012 -0.410414 3.86177 9.97022 1 1
159 1 6.24 13.3714 0.891429 0 0 0 1 2
160 1 5.31387 14.3054 1.79315 2.96388 4.80467 5.04181 1 1
161 1 8.90912 10.7019 1.74049 6.66956 -2.22348 8.49233 1 1
162 1 7.09981 12.5089 1.78704 -4.2478 -1.81081 7.15856 1 1
163 1 7.13143 10.6971 0 0 0 0 1 3
164 1 8.02286 11.5886 0.891429 0 0 0 1 2
165 1 8.91429 12.48 0 0 0 0 1 3
166 1 9.86713 11.5572 2.65742 -6.35215 -0.758037 0.635467 1 1
167 1 8.00588 13.3304 2.70037 0.329894 -1.88359 -2.77796 1 1
168 1 9.80572 13.3714 0.891429 0 0 0 1 2
169 1 10.7002 12.4836 1.75232 0.89352 -1.12582 -3.62013 1 1
170 1 10.6971 10.6971 0 0 0 0 1 3
171 1 12.48 12.48 0 0 0 0 1 3
172 1 11.5886 11.5886 0.891429 0 0 0 1 2
173 1 13.3459 11.6185 2.68441 -5.16168 -1.16913 -6.4032 1 1
174 1 11.5899 13.3556 2.66031 -7.91868 3.19172 -1.2511 1 1
175 1 13.3714 13.3714 0.891429 0 0 0 1 2
176 1 12.5227 14.2234 1.7744 7.60632 -1.78447 -3.89422 1 1
177 1 14.287 12.4959 1.82496 -2.57292 0.910743 -1.74861 1 1
178 1 14.2629 10.6971 0 0 0 0 1 3
179 1 16.0457 12.48 0 0 0 0 1 3
180 1 15.1543 11.5886 0.891429 0 0 0 1 2
181 1 16.9325 11.5537 2.68521 4.01533 5.10473 -0.396621 1 1
182 1 15.1861 13.4011 2.74071 -2.9306 7.29127 -10.5314 1 1
183 1 16.9371 13.3714 0.891429 0 0 0 1 2
184 1 17.7914 12.4541 1.77299 2.84962 -3.80033 3.72078 1 1
185 1 19.5535 10.7083 1.80486 -3.35594 -5.42161 4.04665 1 1
186 1 17.8286 10.6971 0 0 0 0 1 3
187 1 19.6114 12.48 0 0 0 0 1 3
188 1 18.72 11.5886 0.891429 0 0 0 1 2
189 1 20.5123 11.562 2.67339 3.9649 4.43735 -3.97296 1 1
190 1 18.7525 13.3849 2.67638 -1.69308 -10.6278 -9.48207 1 1
191 1 20.5029 13.3714 0.891429 0 0 0 1 2
192 1 19.6367 14.2704 1.76165 4.87788 1.19951 3.67981 1 1
193 1 1.77379 14.265 1.75316 2.93341 2.28367 2.78978 1 1
194 1 0 14.2629 0 0 0 0 1 3
195 1 1.78286 16.0457 0 0 0 0 1 3
196 1 0.891429 15.1543 0.891429 0 0 0 1 2
197 1 0.891538 16.9177 2.62943 4.4685 1.89234 -1.98582 1 1
198 1 2.64506 15.1468 2.67851 5.15609 3.09347 -0.44042 1 1
199 1 2.67429 16.9371 0.891429 0 0 0 1 2
200 1 21.408 16.0304 1.77433 6.60055 -2.19151 10.669 1 1
201 1 3.53751 16.0365 1.77425 -1.32401 -5.9021 -5.4802 1 1
202 1 3.56572 14.2629 0 0 0 0 1 3
203 1 5.34857 16.0457 0 0 0 0 1 3
204 1 4.45714 15.1543 0.891429 0 0 0 1 2
205 1 4.46661 16.9466 2.71191 1.0921 -3.79834 -5.83218 1 1
206 1 6.21091 15.1432 2.68744 2.46217 0.651699 -0.395844 1 1
207 1 6.24 16.9371 0.891429 0 0 0 1 2
208 1 7.09261 16.048 1.79022 -0.613854 4.05506 -3.01001 1 1
209 1 5.36999 17.839 1.80487 -5.11841 -5.32093 -1.21196 1 1
210 1 8.90602 14.2561 1.79951 2.08831 6.73986 -0.991392 1 1
211 1 7.13143 14.2629 0 0 0 0 1 3
212 1 8.02286 15.1543 0.891429 0 0 0 1 2
213 1 8.05863 17.0009 2.69749 5.01207 7.62474 -11.0885 1 1
214 1 8.91429 16.0457 0 0 0 0 1 3
215 1 9.79852 15.1575 2.6945 4.59561 -2.06155 -5.88983 1 1
216 1 9.80572 16.9371 0.891429 0 0 0 1 2
217 1 8.91041 17.8866 1.80294 -4.77637 -2.23959 1.26448 1 1
218 1 10.7077 16.0162 1.82449 -0.530195 -6.70738 -1.92257 1 1
219 1 10.6971 14.2629 0 0 0 0 1 3
220 1 12.48 16.0457 0 0 0 0 1 3
221 1 11.5886 15.1543 0.891429 0 0 0 1 2
222 1 11.5702 16.9559 2.71099 -1.62854 -1.82155 1.94678 1 1
223 1 13.4271 15.1264 2.68267 5.11447 9.84578 -0.651981 1 1
224 1 13.3714 16.9371 0.891429 0 0 0 1 2
225 1 12.5173 17.8273 1.80414 6.92963 -1.45811 -6.51249 1 1
226 1 16.065 14.2995 1.80932 -5.8638 -2.60133 -5.90688 1 1
227 1 14.2714 16.0525 1.79567 -0.655419 3.89922 -5.15441 1 1
228 1 14.2629 14.2629 0 0 0 0 1 3
229 1 16.0457 16.0457 0 0 0 0 1 3
230 1 15.1543 15.1543 0.891429 0 0 0 1 2
231 1 15.142 16.9816 2.70027 -0.245857 1.59855 4.61017 1 1
232 1 16.962 15.172 2.72535 -1.50042 5.30595 1.71883 1 1
233 1 16.9371 16.9371 0.891429 0 0 0 1 2
234 1 17.8157 16.0286 1.78134 0.885877 -0.151998 -5.0842 1 1
235 1 17.8286 14.2629 0 0 0 0 1 3
236 1 19.6114 16.0457 0 0 0 0 1 3
237 1 18.72 15.1543 0.891429 0 0 0 1 2
238 1 18.7108 16.9408 2.65107 2.46498 6.43224 -3.29096 1 1
239 1 20.5022 15.1533 2.62543 0.713589 -4.59758 5.73524 1 1
240 1 20.5029 16.9371 0.891429 0 0 0 1 2
241 1 19.615 17.8234 1.78014 -0.931373 -4.46156 -3.93515 1 1
242 1 1.76487 17.8079 1.77199 0.816108 5.67839 -2.2703 1 1
243 1 0 17.8286 0 0 0 0 1 3
244 1 1.78286 19.6114 0 0 0 0 1 3
245 1 0.891429 18.72 0.891429 0 0 0 1 2
246 1 0.893873 20.5251 2.64357 -0.367749 3.21983 -2.41255 1 1
247 1 2.71948 18.6571 2.67274 -0.0233154 0.889335 3.44647 1 1
248 1 2.67429 20.5029 0.891429 0 0 0 1 2
249 1 3.53568 19.5634 1.77682 4.21078 -7.29163 -7.45074 1 1
250 1 21.3868 19.6528 1.79167 2.68418 -2.25874 1.64759 1 1
251 1 5.31272 21.3599 1.79147 0.59725 -0.635295 -0.809073 1 1
252 1 3.56572 17.8286 0 0 0 0 1 3
253 1 5.34857 19.6114 0 0 0 0 1 3
254 1 4.45714 18.72 0.891429 0 0 0 1 2
255 1 4.47229 20.4436 2.67076 -2.97336 -3.95083 -3.47078 1 1
256 1 6.27401 18.6992 2.69968 -5.17298 -7.06575 3.54423 1 1
257 1 6.24 20.5029 0.891429 0 0 0 1 2
258 1 7.11803 19.6068 1.77093 -10.7888 4.27139 4.44094 1 1
259 1 7.13143 17.8286 0 0 0 0 1 3
260 1 8.02286 18.72 0.891429 0 0 0 1 2
261 1 8.03539 20.48 2.68466 -2.84504 2.18614 -1.10834 1 1
262 1 8.91429 19.6114 0 0 0 0 1 3
263 1 9.8018 18.7682 2.69524 0.362773 2.1859 -6.53218 1 1
264 1 9.80572 20.5029 0.891429 0 0 0 1 2
265 1 10.6856 19.633 1.815 1.55816 3.93318 -3.13328 1 1
266 1 12.4912 -0.0144807 1.76501 3.44432 -6.4083 -0.448644 1 1
267 1 10.6971 17.8286 0 0 0 0 1 3
268 1 12.48 19.6114 0 0 0 0 1 3
269 1 11.5886 18.72 0.891429 0 0 0 1 2
270 1 11.5969 20.4873 2.65103 -9.67434 0.186832 9.32588 1 1
271 1 13.3615 18.7668 2.71429 -5.79009 3.78863 -8.77583 1 1
272 1 13.3714 20.5029 0.891429 0 0 0 1 2
273 1 14.2452 19.645 1.77797 2.5929 -6.62722 -8.14279 1 1
274 1 16.0077 17.8738 1.7927 2.2503 3.55561 -0.0412943 1 1
275 1 14.2629 17.8286 0 0 0 0 1 3
276 1 16.0457 19.6114 0 0 0 0 1 3
277 1 15.1543 18.72 0.891429 0 0 0 1 2
278 1 15.1476 20.54 2.70249 -1.4219 -0.682626 0.796047 1 1
279 1 16.9686 18.7314 2.66379 -3.56547 -3.10486 -0.0673039 1 1
280 1 16.9371 20.5029 0.891429 0 0 0 1 2
281 1 19.5988 21.3921 1.77764 -6.80785 1.05839 -3.26694 1 1
282 1 17.8632 19.6367 1.77062 0.621263 0.664156 1.05015 1 1
283 1 17.8286 17.8286 0 0 0 0 1 3
284 1 19.6114 19.6114 0 0 0 0 1 3
285 1 18.72 18.72 0.891429 0 0 0 1 2
286 1 18.7339 20.4868 2.68994 0.549971 -0.566642 -4.93546 1 1
287 1 20.5054 18.7625 2.69053 7.12295 -3.81984 -10.8368 1 1
288 1 20.5029 20.5029 0.891429 0 0 0 1 2
289 1 1.77592 1.75689 3.55928 -0.412919 -2.09977 1.26689 1 1
290 1 0.901801 0.866817 4.50041 -5.0675 -2.33657 -8.97988 1 1
291 1 2.68214 2.68567 4.46266 -0.225369 5.16801 2.27844 1 1
292 1 1.84035 21.4007 5.38588 -3.29828 -0.811109 7.61509 1 1
293 1 1.78525 3.57845 5.37428 -1.04153 3.71115 0.509392 1 1
294 1 -0.0299307 1.75115 5.35948 -5.20626 -3.54774 -8.49436 1 1
295 1 21.4148 0.0318054 3.55237 11.2183 -2.85159 0.819446 1 1
296 1 3.53925 1.75737 5.35405 8.30255 -7.578 0.227767 1 1
297 1 5.31604 1.82791 3.59178 3.24237 -8.30125 -9.80446 1 1
298 1 4.46327 0.893861 4.46902 3.77189 -4.09247 -0.797397 1 1
299 1 6.26229 0.860191 6.27939 6.93613 -6.86114 -6.76985 1 1
300 1 6.21675 2.68634 4.45535 6.8515 1.7873 -0.432235 1 1
301 1 3.61195 -0.00376603 3.58981 3.38568 -4.67385 -0.746045 1 1
302 1 7.15603 21.397 3.5678 1.02732 1.53578 3.13067 1 1
303 1 5.42481 0.000233564 5.34962 -2.38672 -1.36338 4.15905 1 1
304 1 7.1003 3.50982 3.57757 -2.24175 -1.30527 -3.35325 1 1
305 1 7.13677 1.77231 5.34608 -8.105 -4.52022 2.55908 1 1
306 1 8.9325 1.75088 3.60269 -4.63504 0.287095 5.74388 1 1
307 1 8.04099 0.882776 4.4942 2.83026 1.22542 4.06337 1 1
308 1 7.98783 2.67301 6.26481 0.212157 6.11325 -8.27454 1 1
309 1 9.77323 0.867882 6.24753 -0.85671 -8.49783 -7.33606 1 1
310 1 9.75946 2.6686 4.47139 -1.12659 0.972861 5.18983 1 1
311 1 10.6639 1.75837 5.34603 -4.30301 3.75569 3.86443 1 1
312 1 12.4899 1.75918 3.60113 -5.03885 -3.57491 -3.87855 1 1
313 1 11.5745 0.891466 4.49024 0.593705 5.62847 0.452735 1 1
314 1 11.5546 2.62715 6.2785 -12.7783 0.438521 -3.04993 1 1
315 1 13.3778 2.65649 4.51705 -2.88292 0.42285 -1.68563 1 1
316 1 13.3542 0.870583 6.27634 -4.57034 -0.296306 3.79255 1 1
317 1 12.4991 3.60323 5.39859 6.06727 1.32735 1.71939 1 1
318 1 14.2672 1.75785 5.43109 3.57531 -0.75451 5.93702 1 1
319 1 12.4175 0.0190384 5.41629 -6.06333 -2.07156 -3.97139 1 1
320 1 14.272 3.56551 3.57017 -2.07537 -6.15278 0.797422 1 1
321 1 16.0411 1.80783 3.58884 0.980614 3.87163 -4.44789 1 1
322 1 15.1379 0.852151 4.51414 5.69288 1.42535 1.19852 1 1
323 1 15.1645 2.63016 6.30545 0.190496 -8.17427 -6.82308 1 1
324 1 16.9618 2.69698 4.5319 -0.192319 -1.66693 2.13157 1 1
325 1 17.8371 1.80245 5.40777 -1.02719 -5.37444 8.35561 1 1
326 1 16.0458 21.3911 5.38811 6.06212 5.77559 -4.31942 1 1
327 1 19.6046 1.78194 3.58095 2.29689 -3.51702 0.955282 1 1
328 1 18.7244 0.906873 4.46917 -7.20808 3.39436 -7.41537 1 1
329 1 20.4965 2.62223 4.47387 -4.82266 -6.53013 -2.29603 1 1
330 1 17.859 0.0040491 3.55159 -4.05543 0.549428 -3.97277 1 1
331 1 19.5869 21.3933 5.38495 1.79447 1.78155 -3.22054 1 1
332 1 21.3956 3.54958 3.56484 7.26064 4.4984 0.630234 1 1
333 1 1.76346 5.35274 3.55532 -2.78016 3.3116 -7.28887 1 1
334 1 0.886508 4.41222 4.42128 6.7932 -5.58791 -4.95114 1 1
335 1 2.68355 4.49134 6.23477 2.4752 -4.67855 6.08269 1 1
336 1 2.66738 6.23895 4.50557 5.69742 3.58131 10.3743 1 1
337 1 3.57743 3.59314 3.58293 2.74749 -0.473419 0.00872171 1 1
338 1 21.3907 5.3425 5.37898 -0.865901 3.39235 6.47638 1 1
339 1 3.56116 5.34876 5.35394 8.09362 -5.54357 -4.63634 1 1
340 1 5.36158 3.57004 5.35693 4.31777 -0.181716 -4.65228 1 1
341 1 5.38134 5.38409 3.53854 2.25842 6.71843 1.49448 1 1
342 1 4.47017 4.48688 4.45596 -3.2766 5.5658 4.60023 1 1
343 1 4.4986 6.25946 6.26296 -3.30389 0.268886 -3.44403 1 1
344 1 6.22542 6.25656 4.43811 3.32059 -3.94375 -1.63604 1 1
345 1 7.13529 5.34197 5.38492 -1.1992 -1.84627 2.28378 1 1
346 1 5.35813 7.15544 5.35931 -5.59471 5.76607 -11.2148 1 1
347 1 6.20213 4.45382 6.27055 0.414092 -2.94449 -4.16994 1 1
348 1 8.8795 3.55967 5.39541 -8.79339 2.03608 -2.24293 1 1
349 1 10.698 3.57869 3.6569 -7.47185 1.33099 -1.93301 1 1
350 1 8.94121 5.35436 3.60177 -3.23994 2.19114 0.632607 1 1
351 1 8.01209 4.45487 4.50681 2.18284 -1.29742 -2.41834 1 1
352 1 8.06486 6.25509 6.26263 4.6213 -4.18671 -2.90879 1 1
353 1 9.77895 4.40036 6.26623 -8.42601 -5.31168 6.16504 1 1
354 1 9.83322 6.24234 4.50951 11.1965 3.00631 3.82223 1 1
355 1 10.7001 5.33915 5.41125 0.808854 4.96887 4.76431 1 1
356 1 12.5244 5.31935 3.63731 -10.7066 -1.1982 3.12473 1 1
357 1 11.5908 4.48099 4.51946 4.68346 -0.231855 -7.53586 1 1
358 1 13.3902 6.20919 4.49631 -2.0888 5.51654 3.74678 1 1
359 1 14.2799 5.31972 5.40945 -5.15756 0.612669 -2.16211 1 1
360 1 16.0318 3.53932 5.44197 0.0423837 9.7817 -4.88406 1 1
361 1 17.8297 3.57269 3.62839 -6.76699 -6.94495 11.4484 1 1
362 1 16.047 5.32612 3.64879 4.31646 3.99317 0.895377 1 1
363 1 15.1599 4.39945 4.51343 4.60215 -5.73572 1.5161 1 1
364 1 16.9195 6.2038 4.5322 3.92504 -5.65934 -2.57318 1 1
365 1 16.9188 4.41953 6.31361 1.53311 2.57057 -4.2248 1 1
366 1 16.0553 7.10635 5.40627 0.971983 3.54625 1.51362 1 1
367 1 15.1276 6.27533 6.28004 5.43022 3.05674 2.63859 1 1
368 1 19.6108 3.53123 5.38255 3.16469 2.85463 -2.98575 1 1
369 1 17.8182 5.32212 5.40134 -8.87846 -1.86196 2.69919 1 1
370 1 19.5898 5.33662 3.60904 2.72448 -4.67895 -1.92279 1 1
371 1 18.7054 4.43283 4.49587 -0.9021 -2.23252 -6.6272 1 1
372 1 20.4966 4.40822 6.26397 -7.88748 5.53367 -4.51412 1 1
373 1 20.473 6.22641 4.50277 0.124004 -0.687751 -1.19976 1 1
374 1 19.5854 7.09183 5.40831 -1.12904 5.59263 -0.251369 1 1
375 1 21.3693 7.09946 3.59698 -3.04126 -5.93744 -0.855215 1 1
376 1 1.78281 7.12708 5.40024 6.11446 2.81848 -4.09952 1 1
377 1 1.79684 8.85705 3.5775 4.32067 5.00427 1.71337 1 1
378 1 0.901382 8.00709 4.43183 3.43175 -5.61336 -0.746174 1 1
379 1 2.67053 8.0619 6.27871 1.71175 -2.0152 5.79896 1 1
380 1 0.919499 9.80509 6.2625 -6.75951 -2.50334 5.18678 1 1
381 1 2.72138 9.84108 4.46414 1.27023 -5.64284 0.459764 1 1
382 1 0.016335 8.85672 5.3466 -2.80813 -0.547094 -3.61259 1 1
383 1 1.78862 10.6766 5.33869 3.88688 4.16391 4.50942 1 1
384 1 3.53416 7.10001 3.6024 -6.59063 -0.316994 -0.880139 1 1
385 1 7.0986 7.12131 3.59256 -4.36776 -2.41604 -0.924699 1 1
386 1 3.56313 10.7177 3.58945 -1.15775 -0.823398 -3.3685 1 1
387 1 3.57728 8.93849 5.40956 8.04577 1.77022 -4.82925 1 1
388 1 5.32941 8.92304 3.57104 1.04731 3.73003 -0.861356 1 1
389 1 4.42979 8.03735 4.49685 2.92638 -6.75224 12.8375 1 1
390 1 4.4653 9.82194 6.2863 -1.60532 -4.52095 4.07527 1 1
391 1 6.224 9.78017 4.46307 0.539327 0.63072 3.06789 1 1
392 1 8.91246 7.14491 5.34831 -1.4542 1.65164 -6.19922 1 1
393 1 7.20612 8.93087 5.30574 0.227516 -6.25488 2.5156 1 1
394 1 8.95421 8.8963 3.62816 1.75973 -6.93708 -0.445724 1 1
395 1 8.00855 8.002 4.45112 -1.94025 0.959315 3.09417 1 1
396 1 9.81058 9.78601 4.49391 -2.35433 -0.401563 -1.69694 1 1
397 1 10.7036 8.87579 5.34762 -0.132107 -9.11544 -0.0854745 1 1
398 1 10.6994 10.7004 3.58482 -0.976686 6.76925 -1.9683 1 1
399 1 9.78765 8.02087 6.24989 -1.2866 1.81255 -3.55053 1 1
400 1 12.4785 7.08674 5.36037 -5.55406 4.02953 0.765955 1 1
401 1 10.6857 7.10545 3.59699 -4.04139 -4.07626 -0.717873 1 1
402 1 12.4732 8.88479 3.57502 1.20739 0.554261 1.63025 1 1
403 1 11.5961 7.95019 4.45315 8.57797 -1.37389 -1.49408 1 1
404 1 13.3265 9.76138 4.45908 6.2369 1.60168 3.80578 1 1
405 1 14.2764 7.09215 3.60776 -5.93596 -6.04494 -0.498372 1 1
406 1 14.2341 8.8948 5.35295 4.88777 5.45097 -2.40251 1 1
407 1 17.8211 7.12502 3.62359 5.56014 -2.50752 1.85926 1 1
408 1 16.0232 8.89903 3.59793 -11.5112 -7.03312 -2.13038 1 1
409 1 15.1317 8.03043 4.50791 0.15895 4.56441 3.04963 1 1
410 1 16.8986 9.79255 4.43291 -1.73532 4.58627 3.18744 1 1
411 1 16.0355 10.6555 5.37811 3.14212 -0.70582 7.21291 1 1
412 1 16.9208 7.98891 6.276 -4.44209 -0.0437565 3.96442 1 1
413 1 17.7926 8.88181 5.42225 2.80806 2.28052 1.98471 1 1
414 1 19.6051 8.89932 3.63715 -3.54615 2.00867 -5.70659 1 1
415 1 18.6724 8.04316 4.51912 -4.64772 0.040815 7.33256 1 1
416 1 18.708 9.79937 6.32877 2.10501 -2.03224 3.263 1 1
417 1 20.5083 9.78368 4.51747 -1.68865 -2.91536 4.53052 1 1
418 1 20.507 7.97402 6.28741 0.388011 -1.14891 -0.628957 1 1
419 1 19.5649 10.6537 5.382 -3.88033 0.995142 2.48943 1 1
420 1 -0.0261728 10.7011 3.62845 -1.38776 -3.51186 -0.0554012 1 1
421 1 1.7752 12.4865 3.52275 -5.02861 1.91824 3.29254 1 1
422 1 0.913792 11.5992 4.48722 -2.89111 -4.97256 8.23015 1 1
423 1 2.66886 11.5708 6.28544 -9.57235 1.11033 3.69742 1 1
424 1 0.892353 13.3812 6.25782 -0.168816 -3.65227 0.151783 1 1
425 1 2.68551 13.3456 4.49729 1.69241 -3.9744 2.06593 1 1
426 1 0.0108111 12.4353 5.38398 -1.02806 0.839251 -0.83314 1 1
427 1 5.38056 10.7186 5.37106 -1.87715 0.246461 -0.639677 1 1
428 1 3.55539 14.2405 3.57975 5.97081 3.42679 -2.42823 1 1
429 1 3.60746 12.4736 5.39734 -5.62024 -0.780259 4.53006 1 1
430 1 5.33009 12.4982 3.57353 -1.4876 2.39852 2.44763 1 1
431 1 4.46592 11.6082 4.48123 -3.04119 -1.7118 4.17529 1 1
432 1 6.21756 13.3734 4.49339 0.52738 -7.18833 -1.55965 1 1
433 1 7.15929 14.2384 3.59884 -2.7161 0.751879 -10.0758 1 1
434 1 6.22172 11.619 6.26423 -4.81819 1.9775 -3.94307 1 1
435 1 7.1539 10.6755 3.55902 -1.53439 7.62393 -7.0232 1 1
436 1 7.1141 12.4593 5.36677 3.58971 1.83782 -8.72378 1 1
437 1 8.88874 10.6462 5.37999 1.54571 5.40869 -10.2533 1 1
438 1 8.94374 12.4953 3.60077 5.68244 3.81865 -1.58878 1 1
439 1 8.04833 11.5897 4.50932 -5.64864 -2.05818 -3.6954 1 1
440 1 9.80978 11.5612 6.23421 -7.0485 2.29711 -3.68433 1 1
441 1 8.00313 13.397 6.24871 -6.49495 -2.89642 3.04228 1 1
442 1 9.79066 13.3777 4.49035 -1.68576 -2.43015 -3.46766 1 1
443 1 10.7077 14.25 3.53746 -3.28764 -0.0603515 2.63132 1 1
444 1 12.4381 10.7094 5.37716 -0.407016 -12.1684 3.71114 1 1
445 1 10.6758 12.4684 5.35948 10.6897 -2.38367 12.0482 1 1
446 1 12.4364 12.4983 3.59238 12.447 -8.38893 -5.2828 1 1
447 1 11.5964 11.6129 4.48728 6.79911 -1.31298 -8.14532 1 1
448 1 13.3479 11.5692 6.27812 2.88269 -1.15107 -1.06889 1 1
449 1 11.54 13.404 6.29763 0.314186 -2.64429 -4.49288 1 1
450 1 13.3682 13.4044 4.48179 -7.0862 -4.92765 -1.22019 1 1
451 1 14.2171 10.7 3.57269 1.02721 4.6155 -2.60086 1 1
452 1 14.2303 12.48 5.41912 1.09049 2.92859 5.22231 1 1
453 1 16.1147 12.4464 3.60845 1.52469 1.49189 1.84838 1 1
454 1 15.1408 11.5558 4.46578 -0.412407 0.699854 9.4486 1 1
455 1 16.919 11.5292 6.26077 2.68695 4.29033 -6.15756 1 1
456 1 16.977 13.3684 4.49129 -5.00342 -6.93657 -4.13261 1 1
457 1 17.8206 12.4384 5.41575 -6.68146 -2.25484 -5.49293 1 1
458 1 15.141 13.3915 6.28966 2.45245 -2.10206 -1.47947 1 1
459 1 17.846 10.6922 3.56223 -4.12173 -4.00295 5.2436 1 1
460 1 19.553 12.421 3.58122 1.50298 -5.25405 -1.6015 1 1
461 1 18.7022 11.5451 4.50653 -5.77562 1.26434 1.91642 1 1
462 1 18.7513 13.3423 6.27606 -0.93175 2.8471 2.80965 1 1
463 1 20.466 13.3002 4.42288 -4.4715 7.34653 13.1356 1 1
464 1 20.5009 11.5693 6.28663 -8.25973 1.18077 6.2876 1 1
465 1 1.78287 14.2353 5.37872 -1.4675 5.75568 -1.19743 1 1
466 1 1.76277 16.0043 3.64096 2.65662 -2.22199 1.46395 1 1
467 1 0.935642 15.0967 4.50279 -4.30558 9.63665 -6.73993 1 1
468 1 2.70595 15.1795 6.2344 -3.26569 9.50519 -0.563058 1 1
469 1 2.65237 16.9217 4.50444 -4.55623 3.14973 -2.64486 1 1
470 1 21.3816 16.0326 5.40664 3.48814 -6.321 -4.68037 1 1
471 1 21.3441 14.2588 3.55914 0.557371 -3.62426 3.47563 1 1
472 1 1.79242 17.8289 5.33321 -2.26079 6.8065 5.70725 1 1
473 1 5.32521 14.3234 5.39965 1.09919 -0.0605942 3.47979 1 1
474 1 3.57048 16.0857 5.40107 -1.97294 2.74341 4.00061 1 1
475 1 5.37452 16.0779 3.62469 -0.614574 0.529724 6.58612 1 1
476 1 4.45832 15.1954 4.48564 3.2373 -6.38634 0.605857 1 1
477 1 4.49627 16.9294 6.25371 2.20216 3.4181 -1.41407 1 1
478 1 6.27321 15.1808 6.29672 -9.89107 12.3331 6.16455 1 1
479 1 6.27353 16.9278 4.54748 1.51837 10.8528 -2.46988 1 1
480 1 7.18583 16.0332 5.38773 -2.08034 -3.46826 6.2595 1 1
481 1 8.90765 14.2826 5.42888 -8.21546 1.75183 -4.69655 1 1
482 1 8.90823 16.0665 3.59269 0.662059 2.1684 2.24444 1 1
483 1 8.05275 15.1513 4.4278 0.0126859 0.91197 -0.162079 1 1
484 1 8.06173 16.9165 6.31354 7.00701 5.43526 -10.2167 1 1
485 1 9.8068 15.2012 6.33043 -0.804479 -1.17207 4.20096 1 1
486 1 9.80713 16.973 4.49042 1.47694 -1.46951 1.90546 1 1
487 1 10.6493 16.0782 5.38843 -1.23243 1.70967 -1.32231 1 1
488 1 8.9412 17.8597 5.37869 -1.40498 2.16338 -4.54695 1 1
489 1 10.6792 17.8391 3.61683 1.13288 8.6231 -2.80031 1 1
490 1 12.4766 14.2621 5.39237 7.99846 1.15158 -3.4134 1 1
491 1 12.5188 16.0369 3.59439 3.75427 8.70584 -1.66744 1 1
492 1 11.6242 15.1821 4.44989 3.30621 -1.50599 -0.898079 1 1
493 1 11.5596 16.9963 6.2957 -13.3146 0.995941 -1.32973 1 1
494 1 13.3648 16.9095 4.4846 -4.51496 -3.15426 1.88379 1 1
495 1 13.3945 15.2209 6.25257 3.55312 -6.08845 0.423551 1 1
496 1 12.4654 17.843 5.40026 1.12758 -0.834255 -1.90105 1 1
497 1 14.3048 14.2741 3.62404 1.53695 -2.15933 5.77913 1 1
498 1 16.0372 14.2698 5.37069 -8.36663 -1.76288 -2.31767 1 1
499 1 17.8513 14.246 3.56739 5.39251 -8.9722 -9.13246 1 1
500 1 14.2718 16.0538 5.36962 6.12286 4.23808 1.86327 1 1
501 1 14.2448 17.8471 3.63005 -2.73579 -4.85526 3.29107 1 1
502 1 16.075 16.0811 3.62029 2.76642 -7.31414 5.68257 1 1
503 1 15.1351 15.1793 4.48801 -4.42838 5.83659 1.52918 1 1
504 1 16.9331 16.9388 4.47251 -7.2685 0.0873571 1.18026 1 1
505 1 16.9629 15.1799 6.28304 -0.71922 -3.69304 -8.12548 1 1
506 1 17.8867 16.035 5.40124 3.10407 4.68885 4.78711 1 1
507 1 19.6414 14.205 5.34971 6.8678 -4.63839 1.2337 1 1
508 1 19.5877 16.0491 3.59366 -6.40101 5.15734 2.95777 1 1
509 1 18.7394 15.1207 4.46023 -4.24014 -5.07239 1.5791 1 1
510 1 20.5168 16.9292 4.44191 0.0168797 -1.12892 1.23776 1 1
511 1 19.614 17.8452 5.35593 -2.68066 3.52538 -8.62799 1 1
512 1 20.4946 15.1052 6.25846 7.14333 0.505979 3.44079 1 1
513 1 1.75827 19.603 3.59048 -4.20576 -1.83308 0.445199 1 1
514 1 0.905683 18.6856 4.44348 3.88011 -5.25674 -2.88471 1 1
515 1 0.923795 20.4563 6.22115 3.38298 5.90376 -2.89485 1 1
516 1 2.69535 20.4879 4.43034 2.70912 -0.45692 -1.87159 1 1
517 1 21.3683 17.8469 3.53042 0.352455 3.33402 0.244443 1 1
518 1 0.0250075 19.602 5.34544 -3.37175 0.279594 -3.37083 1 1
519 1 2.72143 18.7038 6.19001 -10.9048 6.68766 -2.25778 1 1
520 1 5.39097 17.7941 5.38226 -0.258203 -2.84557 -1.89243 1 1
521 1 3.57014 17.799 3.60093 -1.99192 0.145154 5.1394 1 1
522 1 3.63611 19.5861 5.34121 -7.0991 3.71987 -5.63519 1 1
523 1 5.36135 19.5681 3.58122 7.73989 -2.66977 1.41968 1 1
524 1 4.47097 18.6934 4.50681 -0.723252 0.308269 -3.03338 1 1
525 1 4.52568 20.4984 6.23847 0.16733 -8.88976 -3.18639 1 1
526 1 6.27904 18.686 6.26174 6.65156 6.45298 -0.963032 1 1
527 1 6.23628 20.476 4.44292 -3.58336 7.42018 1.98599 1 1
528 1 7.1378 17.853 3.59029 4.71916 2.86931 1.54509 1 1
529 1 7.17315 19.5664 5.39469 -3.08846 0.97282 -5.13727 1 1
530 1 8.88992 -0.0588201 5.34626 -6.20411 -2.30694 -5.47851 1 1
531 1 8.92719 19.5943 3.55246 7.1739 0.43226 6.13671 1 1
532 1 8.05936 18.6982 4.47929 0.762938 -2.41838 -1.37134 1 1
533 1 8.03342 20.4607 6.28503 -10.2596 5.77623 -2.86551 1 1
534 1 9.8427 18.7472 6.30394 -4.66881 8.12654 4.51762 1 1
535 1 9.7617 20.5 4.46152 2.79326 -6.87009 -4.65798 1 1
536 1 10.6914 19.6815 5.38445 -4.41881 -0.744874 1.07547 1 1
537 1 10.6637 21.3955 3.59587 1.06871 -0.937109 0.0123092 1 1
538 1 12.4574 19.6073 3.61279 6.48387 -7.7392 -4.5226 1 1
539 1 11.5629 18.6997 4.51873 -0.4895 1.5049 -7.01729 1 1
540 1 13.3393 18.7286 6.24271 0.351073 -7.94325 -1.62238 1 1
541 1 13.3441 20.4732 4.50125 7.28701 3.15509 1.08003 1 1
542 1 16.0201 17.8272 5.36732 -5.81971 -1.90516 6.97398 1 1
543 1 14.2484 21.3567 3.62503 -16.8876 1.09726 0.69784 1 1
544 1 14.2809 19.6126 5.37571 -2.93676 6.53719 7.35613 1 1
545 1 16.0452 19.6304 3.56452 0.682787 -1.18164 0.0671465 1 1
546 1 15.158 18.7216 4.49554 -13.2646 5.37677 -6.34371 1 1
547 1 16.9125 18.7136 6.23141 -2.72727 -0.289545 1.2709 1 1
548 1 16.9222 20.5223 4.45446 6.07898 3.20061 -5.62883 1 1
549 1 17.7795 19.6626 5.35398 -7.67354 -11.5347 -2.26096 1 1
550 1 17.7805 17.8194 3.58605 0.0344606 1.57091 1.48834 1 1
551 1 19.627 19.6248 3.59257 0.287228 -3.7502 -8.30955 1 1
552 1 18.7037 18.7552 4.48113 -0.556009 3.46164 -7.4117 1 1
553 1 18.708 20.5257 6.2314 2.30614 -2.03198 -1.73028 1 1
554 1 20.5468 18.7134 6.23764 0.267465 -5.44195 -9.8973 1 1
555 1 20.5743 20.4845 4.43506 5.55218 0.169208 4.99835 1 1
556 1 2.73869 0.854446 6.22745 -1.3674 0.530991 -1.28336 1 1