ITEM: TIMESTEP
500
ITEM: NUMBER OF ATOMS
2953
ITEM: BOX BOUNDS pp pp mm
0.0000000000000000e+00 2.1394294200000001e+01
0.0000000000000000e+00 2.1394294200000001e+01
-4.4571446250000002e-01 5.3485735500000004e+01
ITEM: ATOMS id type x y z vx vy vz v_is_diamond c_structure_type
1 1 0 0 0 0 0 0 1 3
2 1 21.3584 1.82624 1.76281 -4.04804 0.477255 2.9511 1 1
3 1 1.77354 0.0143713 1.79983 -1.44975 0.152488 -4.7267 1 1
4 1 1.78286 1.78286 0 0 0 0 1 3
5 1 0.891429 0.891429 0.891429 0 0 0 1 2
6 1 0.911025 2.66177 2.71061 -2.43607 -7.04386 9.66074 1 1
7 1 2.70411 0.898772 2.66987 2.34879 -9.0822 4.88021 1 1
8 1 2.67429 2.67429 0.891429 0 0 0 1 2
9 1 3.56572 0 0 0 0 0 1 3
10 1 3.55928 1.80665 1.79553 -2.08772 -5.39303 2.07458 1 1
11 1 5.35199 0.0450458 1.78183 6.68463 -3.54702 -11.0444 1 1
12 1 5.34857 1.78286 0 0 0 0 1 3
13 1 4.45714 0.891429 0.891429 0 0 0 1 2
14 1 4.43006 2.69952 2.65513 -0.0499884 9.83473 -9.03572 1 1
15 1 6.19847 0.922876 2.70968 4.31838 -4.24389 5.37381 1 1
16 1 6.24 2.67429 0.891429 0 0 0 1 2
17 1 7.13143 0 0 0 0 0 1 3
18 1 7.08781 1.80774 1.81182 7.84084 0.520469 4.48424 1 1
19 1 8.90175 21.3502 1.79247 0.425999 -0.486835 9.34653 1 1
20 1 8.91429 1.78286 0 0 0 0 1 3
21 1 8.02286 0.891429 0.891429 0 0 0 1 2
22 1 8.0122 2.67909 2.70206 7.11006 2.95353 7.87358 1 1
23 1 9.80556 0.886764 2.65715 3.58802 1.94727 4.55382 1 1
24 1 9.80572 2.67429 0.891429 0 0 0 1 2
25 1 10.6971 0 0 0 0 0 1 3
26 1 10.6828 1.80105 1.78652 0.56312 3.83396 2.46979 1 1
27 1 12.5079 21.3912 1.78928 4.1319 1.03511 -2.4859 1 1
28 1 12.48 1.78286 0 0 0 0 1 3
29 1 11.5886 0.891429 0.891429 0 0 0 1 2
30 1 11.6211 2.70408 2.68076 8.28603 0.277641 2.21407 1 1
31 1 13.3837 0.897573 2.69677 -8.74923 3.53305 -11.7417 1 1
32 1 13.3714 2.67429 0.891429 0 0 0 1 2
33 1 14.2629 0 0 0 0 0 1 3
34 1 14.2657 1.74487 1.774 7.7422 3.32913 -4.84263 1 1
35 1 16.0584 21.374 1.79447 2.76579 -0.872052 -6.37177 1 1
36 1 16.0457 1.78286 0 0 0 0 1 3
37 1 15.1543 0.891429 0.891429 0 0 0 1 2
38 1 15.1193 2.65347 2.68588 -4.1627 -0.663862 -2.5429 1 1
39 1 16.9541 0.899272 2.69789 3.75945 1.30213 0.345221 1 1
40 1 16.9371 2.67429 0.891429 0 0 0 1 2
41 1 17.8286 0 0 0 0 0 1 3
42 1 17.8309 1.78855 1.79402 5.25689 3.71794 7.11906 1 1
43 1 19.6584 0.0047223 1.84273 -0.921608 -4.87079 1.04063 1 1
44 1 19.6114 1.78286 0 0 0 0 1 3
45 1 18.72 0.891429 0.891429 0 0 0 1 2
46 1 18.7075 2.67032 2.67831 -4.49728 -1.82724 -1.04454 1 1
47 1 20.4896 0.956785 2.68018 2.19112 -5.92713 9.03636 1 1
48 1 20.5029 2.67429 0.891429 0 0 0 1 2
49 1 0 3.56572 0 0 0 0 1 3
50 1 0.0184899 5.34077 1.79994 -3.28 -3.88042 5.09223 1 1
51 1 1.76045 3.57119 1.78679 -5.55133 -4.60089 2.66646 1 1
52 1 1.78286 5.34857 0 0 0 0 1 3
53 1 0.891429 4.45714 0.891429 0 0 0 1 2
54 1 0.91188 6.23763 2.69838 -2.47123 1.24481 -2.74982 1 1
55 1 2.65145 4.47332 2.73063 -1.62112 -3.64307 -2.11558 1 1
56 1 2.67429 6.24 0.891429 0 0 0 1 2
57 1 3.56572 3.56572 0 0 0 0 1 3
58 1 3.56884 5.3187 1.78998 -2.65829 2.94351 2.09473 1 1
59 1 5.34932 3.56249 1.8013 4.44754 -0.805083 -2.22751 1 1
60 1 5.34857 5.34857 0 0 0 0 1 3
61 1 4.45714 4.45714 0.891429 0 0 0 1 2
62 1 4.49014 6.21635 2.67136 -1.57958 -2.04497 2.47052 1 1
63 1 6.24108 4.44762 2.69278 -2.20679 -5.70905 0.0652741 1 1
64 1 6.24 6.24 0.891429 0 0 0 1 2
65 1 7.13143 3.56572 0 0 0 0 1 3
66 1 7.13692 5.32029 1.80928 3.45855 -1.79354 4.407 1 1
67 1 8.89205 3.54269 1.8152 -3.12238 -3.96193 -8.29687 1 1
68 1 8.91429 5.34857 0 0 0 0 1 3
69 1 8.02286 4.45714 0.891429 0 0 0 1 2
70 1 8.01515 6.25079 2.6878 -1.67946 -1.54963 -0.201776 1 1
71 1 9.8108 4.46104 2.70303 -0.841938 -0.0300563 2.23958 1 1
72 1 9.80572 6.24 0.891429 0 0 0 1 2
73 1 10.6971 3.56572 0 0 0 0 1 3
74 1 10.7217 5.35239 1.79731 -4.79329 6.54092 -4.68107 1 1
75 1 12.5104 3.58169 1.78384 2.56225 2.43796 1.00516 1 1
76 1 12.48 5.34857 0 0 0 0 1 3
77 1 11.5886 4.45714 0.891429 0 0 0 1 2
78 1 11.5526 6.2903 2.73339 5.10363 -5.84497 -4.77209 1 1
79 1 13.3626 4.45274 2.72207 -3.49083 6.92818 2.98266 1 1
80 1 13.3714 6.24 0.891429 0 0 0 1 2
81 1 14.2629 3.56572 0 0 0 0 1 3
82 1 14.2645 5.3599 1.79863 -2.75646 -3.36919 4.32298 1 1
83 1 16.0184 3.56177 1.80868 1.68961 4.64343 -1.64716 1 1
84 1 16.0457 5.34857 0 0 0 0 1 3
85 1 15.1543 4.45714 0.891429 0 0 0 1 2
86 1 15.154 6.24587 2.6586 -9.23372 5.77187 2.82012 1 1
87 1 16.9503 4.41159 2.70365 -8.20283 6.13074 3.4999 1 1
88 1 16.9371 6.24 0.891429 0 0 0 1 2
89 1 17.8286 3.56572 0 0 0 0 1 3
90 1 17.8051 5.31145 1.77735 4.81388 -5.13359 2.0403 1 1
91 1 19.6033 3.56649 1.75855 1.31292 3.5873 5.98217 1 1
92 1 19.6114 5.34857 0 0 0 0 1 3
93 1 18.72 4.45714 0.891429 0 0 0 1 2
94 1 18.6881 6.22064 2.71072 -7.16634 -1.2924 7.40458 1 1
95 1 20.5088 4.45892 2.69654 -1.40391 6.57105 -7.59938 1 1
96 1 20.5029 6.24 0.891429 0 0 0 1 2
97 1 0 7.13143 0 0 0 0 1 3
98 1 0.00557809 8.93175 1.81352 -9.10557 5.01067 5.90869 1 1
99 1 1.77979 7.13278 1.7831 0.0131825 4.85108 -0.443644 1 1
100 1 1.78286 8.91429 0 0 0 0 1 3
101 1 0.891429 8.02286 0.891429 0 0 0 1 2
102 1 0.895514 9.81023 2.72381 1.97833 3.27295 1.56829 1 1
103 1 2.69583 8.06634 2.62418 -3.68312 6.83376 2.79994 1 1
104 1 2.67429 9.80572 0.891429 0 0 0 1 2
105 1 3.56572 7.13143 0 0 0 0 1 3
106 1 3.56007 8.91868 1.73463 2.85754 11.7488 -2.18469 1 1
107 1 5.38966 7.13425 1.77738 -2.6963 3.477 -6.33803 1 1
108 1 5.34857 8.91429 0 0 0 0 1 3
109 1 4.45714 8.02286 0.891429 0 0 0 1 2
110 1 4.43639 9.77379 2.61436 -2.6632 2.39288 -3.38144 1 1
111 1 6.26 7.99875 2.71811 -2.09119 -6.35685 -4.14868 1 1
112 1 6.24 9.80572 0.891429 0 0 0 1 2
113 1 7.13143 7.13143 0 0 0 0 1 3
114 1 7.13262 8.89106 1.75256 -1.86693 8.87967 -1.21207 1 1
115 1 8.88045 7.13501 1.80937 0.707116 1.54386 -0.582048 1 1
116 1 8.91429 8.91429 0 0 0 0 1 3
117 1 8.02286 8.02286 0.891429 0 0 0 1 2
118 1 8.05826 9.79597 2.64785 -6.90962 -1.93186 -2.31965 1 1
119 1 9.77797 8.02708 2.69944 8.46796 4.66826 6.66589 1 1
120 1 9.80572 9.80572 0.891429 0 0 0 1 2
121 1 10.6971 7.13143 0 0 0 0 1 3
122 1 10.7009 8.89492 1.81667 8.05699 -0.352747 0.777959 1 1
123 1 12.4645 7.11775 1.77229 -2.69473 6.10406 -6.026 1 1
124 1 12.48 8.91429 0 0 0 0 1 3
125 1 11.5886 8.02286 0.891429 0 0 0 1 2
126 1 11.602 9.76985 2.73044 0.656252 0.447572 -7.03914 1 1
127 1 13.351 8.0327 2.69462 -5.31651 2.7708 -2.19516 1 1
128 1 13.3714 9.80572 0.891429 0 0 0 1 2
129 1 14.2629 7.13143 0 0 0 0 1 3
130 1 14.2425 8.90513 1.81774 -3.75039 1.99463 5.2254 1 1
131 1 16.0348 7.13937 1.79973 -5.8938 2.23951 3.09644 1 1
132 1 16.0457 8.91429 0 0 0 0 1 3
133 1 15.1543 8.02286 0.891429 0 0 0 1 2
134 1 15.1798 9.78046 2.71605 7.65069 0.260501 -0.155337 1 1
135 1 16.9078 8.03672 2.74796 -7.42055 -3.37648 4.49029 1 1
136 1 16.9371 9.80572 0.891429 0 0 0 1 2
137 1 17.8286 7.13143 0 0 0 0 1 3
138 1 17.8116 8.89537 1.8239 -1.73826 -4.40367 -1.52994 1 1
139 1 19.563 7.13648 1.78578 -2.13272 -2.91714 -0.67782 1 1
140 1 19.6114 8.91429 0 0 0 0 1 3
141 1 18.72 8.02286 0.891429 0 0 0 1 2
142 1 18.7582 9.82859 2.66375 -0.776645 14.4578 -1.29913 1 1
143 1 20.4967 8.04055 2.67607 4.2483 -0.499559 -0.551817 1 1
144 1 20.5029 9.80572 0.891429 0 0 0 1 2
145 1 0 10.6971 0 0 0 0 1 3
146 1 21.3725 12.5168 1.85104 -1.86229 -3.28287 -4.59946 1 1
147 1 1.77469 10.6979 1.77904 2.20966 -5.85633 -1.05577 1 1
148 1 1.78286 12.48 0 0 0 0 1 3
149 1 0.891429 11.5886 0.891429 0 0 0 1 2
150 1 0.899594 13.4067 2.71136 0.914352 -1.15148 -3.23356 1 1
151 1 2.68018 11.5972 2.69407 4.5427 1.21176 4.86527 1 1
152 1 2.67429 13.3714 0.891429 0 0 0 1 2
153 1 3.56572 10.6971 0 0 0 0 1 3
154 1 3.57581 12.4693 1.84346 9.5927 -5.32105 0.465557 1 1
155 1 5.29769 10.6995 1.76322 0.866885 5.36692 -3.32383 1 1
156 1 5.34857 12.48 0 0 0 0 1 3
157 1 4.45714 11.5886 0.891429 0 0 0 1 2
158 1 4.46892 13.4347 2.69179 2.17554 -11.0111 -2.85295 1 1
159 1 6.26509 11.622 2.68222 -1.72244 -1.51871 17.2469 1 1
160 1 6.24 13.3714 0.891429 0 0 0 1 2
161 1 7.13143 10.6971 0 0 0 0 1 3
162 1 7.13874 12.4522 1.73338 8.42535 5.37796 6.66548 1 1
163 1 8.91079 10.6893 1.7833 -4.88505 -0.227844 -2.55567 1 1
164 1 8.91429 12.48 0 0 0 0 1 3
165 1 8.02286 11.5886 0.891429 0 0 0 1 2
166 1 8.04619 13.3738 2.64205 4.89256 0.28259 -2.29537 1 1
167 1 9.80369 11.5933 2.67273 -2.05489 6.2229 1.0096 1 1
168 1 9.80572 13.3714 0.891429 0 0 0 1 2
169 1 10.6971 10.6971 0 0 0 0 1 3
170 1 10.7382 12.4723 1.73624 8.60776 -0.960372 10.7063 1 1
171 1 12.4674 10.7084 1.77817 4.58195 -0.052538 0.519071 1 1
172 1 12.48 12.48 0 0 0 0 1 3
173 1 11.5886 11.5886 0.891429 0 0 0 1 2
174 1 11.5929 13.3527 2.66509 -2.5535 -2.71687 6.12933 1 1
175 1 13.364 11.56 2.65973 0.0363569 3.33171 0.882801 1 1
176 1 13.3714 13.3714 0.891429 0 0 0 1 2
177 1 14.2629 10.6971 0 0 0 0 1 3
178 1 14.2489 12.5014 1.78389 -3.74833 2.36354 1.07341 1 1
179 1 16.0917 10.6924 1.78914 -2.0223 1.52685 4.41583 1 1
180 1 16.0457 12.48 0 0 0 0 1 3
181 1 15.1543 11.5886 0.891429 0 0 0 1 2
182 1 15.1568 13.3365 2.63489 -1.54828 -1.78939 1.57381 1 1
183 1 16.953 11.5646 2.68539 -8.32172 -1.03184 -4.47777 1 1
184 1 16.9371 13.3714 0.891429 0 0 0 1 2
185 1 17.8286 10.6971 0 0 0 0 1 3
186 1 17.8552 12.4878 1.78959 5.33968 -0.457452 0.834874 1 1
187 1 19.617 10.7023 1.78582 -6.25049 -1.07021 0.549199 1 1
188 1 19.6114 12.48 0 0 0 0 1 3
189 1 18.72 11.5886 0.891429 0 0 0 1 2
190 1 18.6925 13.3776 2.72772 -3.9402 5.7042 4.49278 1 1
191 1 20.5056 11.6006 2.70527 0.73735 -8.50321 0.310976 1 1
192 1 20.5029 13.3714 0.891429 0 0 0 1 2
193 1 0 14.2629 0 0 0 0 1 3
194 1 21.3928 16.0921 1.74469 1.47974 -0.967309 7.77924 1 1
195 1 1.77046 14.2698 1.80948 -7.38963 5.74752 1.37905 1 1
196 1 1.78286 16.0457 0 0 0 0 1 3
197 1 0.891429 15.1543 0.891429 0 0 0 1 2
198 1 0.945291 16.9607 2.65038 9.04572 0.952001 8.68404 1 1
199 1 2.67765 15.1685 2.69481 1.98489 -1.68328 4.99616 1 1
200 1 2.67429 16.9371 0.891429 0 0 0 1 2
201 1 3.56572 14.2629 0 0 0 0 1 3
202 1 3.58731 15.9996 1.79838 -11.3721 -2.85088 -1.06939 1 1
203 1 5.39156 14.2856 1.77712 -9.21388 1.29321 -6.14711 1 1
204 1 5.34857 16.0457 0 0 0 0 1 3
205 1 4.45714 15.1543 0.891429 0 0 0 1 2
206 1 4.45588 16.9471 2.65859 -5.3408 -4.36543 -5.28978 1 1
207 1 6.27275 15.1316 2.65602 1.92809 2.66437 0.734785 1 1
208 1 6.24 16.9371 0.891429 0 0 0 1 2
209 1 7.13143 14.2629 0 0 0 0 1 3
210 1 7.14226 16.0571 1.75592 -0.968542 -1.92481 6.19421 1 1
211 1 8.93995 14.2469 1.78504 4.87764 -0.600253 0.597478 1 1
212 1 8.91429 16.0457 0 0 0 0 1 3
213 1 8.02286 15.1543 0.891429 0 0 0 1 2
214 1 8.02885 16.9369 2.61493 -0.812179 -8.40906 1.95266 1 1
215 1 9.82806 15.1521 2.64891 8.57423 0.301863 1.76346 1 1
216 1 9.80572 16.9371 0.891429 0 0 0 1 2
217 1 10.6971 14.2629 0 0 0 0 1 3
218 1 10.6883 16.0669 1.81095 -0.164122 0.899924 -5.22332 1 1
219 1 12.4718 14.2722 1.81633 -2.04985 -3.41044 10.011 1 1
220 1 12.48 16.0457 0 0 0 0 1 3
221 1 11.5886 15.1543 0.891429 0 0 0 1 2
222 1 11.6039 16.9597 2.67482 -0.226821 -8.88431 4.38147 1 1
223 1 13.3796 15.1662 2.69321 -2.55801 8.5074 5.0921 1 1
224 1 13.3714 16.9371 0.891429 0 0 0 1 2
225 1 14.2629 14.2629 0 0 0 0 1 3
226 1 14.2591 16.0769 1.7782 2.89233 -1.10093 5.91329 1 1
227 1 16.0387 14.2446 1.81314 2.11494 8.89017 1.84633 1 1
228 1 16.0457 16.0457 0 0 0 0 1 3
229 1 15.1543 15.1543 0.891429 0 0 0 1 2
230 1 15.1432 16.9306 2.70092 -4.67252 8.70928 -3.75762 1 1
231 1 16.9342 15.2055 2.68212 -1.86384 -6.66879 -2.68243 1 1
232 1 16.9371 16.9371 0.891429 0 0 0 1 2
233 1 17.8286 14.2629 0 0 0 0 1 3
234 1 17.808 16.0442 1.7713 7.05471 -5.68282 -0.00573514 1 1
235 1 19.6255 14.2878 1.81803 -2.4288 -9.02101 7.98163 1 1
236 1 19.6114 16.0457 0 0 0 0 1 3
237 1 18.72 15.1543 0.891429 0 0 0 1 2
238 1 18.769 16.9284 2.64858 8.37043 -4.74402 2.49033 1 1
239 1 20.5124 15.1849 2.66163 -4.8646 5.25963 2.75215 1 1
240 1 20.5029 16.9371 0.891429 0 0 0 1 2
241 1 0 17.8286 0 0 0 0 1 3
242 1 0.019691 19.6673 1.76276 -4.06248 4.30688 5.78702 1 1
243 1 1.80217 17.8135 1.81976 4.97112 0.779151 -4.01679 1 1
244 1 1.78286 19.6114 0 0 0 0 1 3
245 1 0.891429 18.72 0.891429 0 0 0 1 2
246 1 0.925522 20.5342 2.69969 8.78095 -3.77523 -4.40754 1 1
247 1 2.67874 18.7403 2.68294 -0.857186 -5.4754 -1.80702 1 1
248 1 2.67429 20.5029 0.891429 0 0 0 1 2
249 1 3.56572 17.8286 0 0 0 0 1 3
250 1 3.56279 19.6218 1.75011 2.67744 1.14278 9.51751 1 1
251 1 5.35896 17.8521 1.79065 -1.26967 -5.39552 -2.33417 1 1
252 1 5.34857 19.6114 0 0 0 0 1 3
253 1 4.45714 18.72 0.891429 0 0 0 1 2
254 1 4.37399 20.5345 2.67621 -3.34691 -1.12723 -4.79142 1 1
255 1 6.24918 18.6884 2.68928 -4.01944 0.992486 5.07672 1 1
256 1 6.24 20.5029 0.891429 0 0 0 1 2
257 1 7.13143 17.8286 0 0 0 0 1 3
258 1 7.14473 19.5889 1.79282 4.31909 2.96824 1.73992 1 1
259 1 8.90765 17.8461 1.76116 7.77725 -4.64183 -11.7846 1 1
260 1 8.91429 19.6114 0 0 0 0 1 3
261 1 8.02286 18.72 0.891429 0 0 0 1 2
262 1 7.97358 20.5036 2.71942 -14.5859 -0.511783 4.40348 1 1
263 1 9.80618 18.7439 2.65812 -2.24555 -2.52213 -3.39237 1 1
264 1 9.80572 20.5029 0.891429 0 0 0 1 2
265 1 10.6971 17.8286 0 0 0 0 1 3
266 1 10.7414 19.5836 1.79437 0.641181 -5.85001 -1.59812 1 1
267 1 12.5244 17.85 1.78848 2.84659 -12.103 1.00727 1 1
268 1 12.48 19.6114 0 0 0 0 1 3
269 1 11.5886 18.72 0.891429 0 0 0 1 2
270 1 11.5855 20.505 2.7342 3.96531 -3.48359 -1.9844 1 1
271 1 13.3613 18.7177 2.6974 0.815869 -5.09016 1.56208 1 1
272 1 13.3714 20.5029 0.891429 0 0 0 1 2
273 1 14.2629 17.8286 0 0 0 0 1 3
274 1 14.2796 19.5988 1.80969 1.9953 4.7634 1.46557 1 1
275 1 16.049 17.8136 1.80814 -4.07726 1.43489 1.88456 1 1
276 1 16.0457 19.6114 0 0 0 0 1 3
277 1 15.1543 18.72 0.891429 0 0 0 1 2
278 1 15.1794 20.4871 2.70201 -4.04579 -7.99291 2.23232 1 1
279 1 16.9669 18.6997 2.70533 -7.1935 0.447124 3.06417 1 1
280 1 16.9371 20.5029 0.891429 0 0 0 1 2
281 1 17.8286 17.8286 0 0 0 0 1 3
282 1 17.8369 19.6216 1.78513 0.586366 1.74647 -0.387353 1 1
283 1 19.6173 17.8804 1.76487 3.01251 -2.75936 3.28315 1 1
284 1 19.6114 19.6114 0 0 0 0 1 3
285 1 18.72 18.72 0.891429 0 0 0 1 2
286 1 18.7352 20.538 2.68101 6.13234 -5.51429 3.19465 1 1
287 1 20.5282 18.7185 2.6715 -1.20869 -1.21663 0.151396 1 1
288 1 20.5029 20.5029 0.891429 0 0 0 1 2
289 1 0.0376459 0.0112845 3.63331 -4.35509 -1.29546 4.90896 1 1
290 1 21.3829 1.78617 5.39118 4.28453 -2.46756 6.43663 1 1
291 1 1.78622 21.3828 5.39775 6.17347 -5.38965 3.4431 1 1
292 1 1.79678 1.81203 3.58041 1.26664 8.15875 -2.8695 1 1
293 1 0.89506 0.951157 4.5129 -2.60237 -2.19366 3.20427 1 1
294 1 0.887225 2.66379 6.29371 -1.4516 0.0786349 -6.44096 1 1
295 1 2.61773 0.901737 6.30255 -2.5392 7.17679 2.08481 1 1
296 1 2.69015 2.66549 4.51938 -4.40297 -5.58636 0.720721 1 1
297 1 3.5037 0.0247402 3.53733 3.29869 -2.28177 -0.105338 1 1
298 1 3.5663 1.77641 5.41554 6.1998 2.42917 -4.43267 1 1
299 1 5.27579 21.3627 5.36566 3.16624 4.85178 -7.06181 1 1
300 1 5.35592 1.79689 3.60681 6.38618 -5.25505 -0.233611 1 1
301 1 4.45509 0.893488 4.50288 -4.67985 9.49724 10.4811 1 1
302 1 4.42127 2.63743 6.32312 8.3969 -5.52824 2.85058 1 1
303 1 6.233 0.875871 6.28426 -0.650813 0.868596 -0.166288 1 1
304 1 6.2535 2.65526 4.53131 -2.76826 7.58601 4.88212 1 1
305 1 7.10762 0.00861889 3.57221 -1.39147 3.16748 -3.53957 1 1
306 1 7.11031 1.77513 5.40914 0.0230036 -3.2075 1.14764 1 1
307 1 8.85545 0.015285 5.41144 -2.76064 -5.84362 -0.107431 1 1
308 1 8.92306 1.79318 3.57309 4.47623 8.52136 4.1491 1 1
309 1 8.01392 0.889162 4.46896 8.21008 1.81249 11.6535 1 1
310 1 8.07435 2.66337 6.29359 -1.32491 0.617734 1.89434 1 1
311 1 9.76852 0.856312 6.30945 -2.1428 5.17308 -3.65928 1 1
312 1 9.79997 2.68188 4.47186 -1.75244 1.54538 6.81261 1 1
313 1 10.6602 0.00649553 3.57944 2.48858 -5.4033 2.51768 1 1
314 1 10.6568 1.77932 5.36856 8.13606 -6.56869 7.11479 1 1
315 1 12.4317 21.3646 5.36661 0.226692 2.42799 6.55412 1 1
316 1 12.4394 1.77142 3.56 1.00393 -0.233816 0.693605 1 1
317 1 11.5362 0.895691 4.45345 3.54977 5.70097 3.71978 1 1
318 1 11.5862 2.65969 6.32201 -0.255071 -2.5148 -1.06942 1 1
319 1 13.3581 0.87873 6.28685 6.46863 -7.15477 3.35756 1 1
320 1 13.3777 2.65227 4.4692 -2.20769 1.40557 2.36018 1 1
321 1 14.2789 21.3811 3.56017 7.14026 -4.07751 2.0453 1 1
322 1 14.3004 1.76748 5.36728 4.39257 3.14395 -6.21584 1 1
323 1 16.0189 21.3918 5.3373 1.6903 3.83544 2.43998 1 1
324 1 16.0607 1.80411 3.57053 -8.37897 9.74304 5.39982 1 1
325 1 15.1759 0.914894 4.45821 -2.51209 -0.374836 -1.23527 1 1
326 1 15.1294 2.66831 6.28766 -1.7903 -1.40186 3.93916 1 1
327 1 16.9264 0.866966 6.28605 4.96563 4.05649 5.03712 1 1
328 1 16.908 2.69614 4.48785 0.397527 8.21197 2.11489 1 1
329 1 17.8345 0.0109528 3.55563 -4.42191 5.15085 5.49514 1 1
330 1 17.84 1.72625 5.37116 -4.03307 3.9119 -3.32086 1 1
331 1 19.6007 0.00933912 5.34722 -0.917445 4.08954 -5.18803 1 1
332 1 19.6112 1.78971 3.54791 0.0522724 1.93289 -2.24018 1 1
333 1 18.7197 0.900162 4.5228 -6.05767 -2.23668 0.538251 1 1
334 1 18.718 2.68941 6.28562 7.10445 4.66252 2.91332 1 1
335 1 20.4728 0.885621 6.2931 -4.16197 -1.14428 7.35095 1 1
336 1 20.4868 2.66224 4.50419 1.43436 2.75776 6.35035 1 1
337 1 0.0395578 3.55787 3.60772 3.18763 -0.747352 2.6693 1 1
338 1 0.042719 5.34975 5.37844 -4.29982 -1.8364 -1.71969 1 1
339 1 1.80444 3.55715 5.38797 5.62568 0.276533 0.783517 1 1
340 1 1.78869 5.33495 3.58562 -0.963117 -4.26816 0.803318 1 1
341 1 0.930631 4.43064 4.48161 4.22095 6.58913 1.24877 1 1
342 1 0.910673 6.21209 6.28519 -0.141028 -2.07598 10.313 1 1
343 1 2.67775 4.45 6.29285 -0.351841 -0.447087 0.989563 1 1
344 1 2.73976 6.29212 4.48125 1.10457 -5.17318 3.94765 1 1
345 1 3.59304 3.56342 3.59275 -0.635221 -0.807078 -14.6427 1 1
346 1 3.63568 5.3678 5.41711 -5.61533 -3.42424 -2.15265 1 1
347 1 5.33325 3.57116 5.40919 0.316232 3.41062 2.59087 1 1
348 1 5.37571 5.3324 3.58105 6.71906 1.74763 1.11799 1 1
349 1 4.48575 4.47195 4.51144 -1.56183 0.211694 -9.21641 1 1
350 1 4.48948 6.28648 6.29098 4.98763 1.17627 -3.4607 1 1
351 1 6.25605 4.48937 6.25779 -3.17329 -1.90863 -2.42565 1 1
352 1 6.24937 6.20509 4.48853 -3.06457 5.23169 -0.88259 1 1
353 1 7.13862 3.57788 3.61263 7.1496 -2.20681 0.999247 1 1
354 1 7.17949 5.3668 5.37736 7.85953 0.181124 3.97304 1 1
355 1 8.92993 3.58275 5.39298 -0.371528 4.24034 1.70987 1 1
356 1 8.88204 5.36139 3.6281 5.64012 -1.31792 5.8789 1 1
357 1 8.01794 4.48275 4.50817 -10.8431 -0.554208 8.58463 1 1
358 1 8.03277 6.24945 6.31264 -3.18463 6.01481 0.267262 1 1
359 1 9.80212 4.44568 6.33358 -0.29159 -0.581336 -1.73577 1 1
360 1 9.77757 6.25098 4.46703 -2.09985 3.22191 -1.94834 1 1
361 1 10.7465 3.55321 3.58335 -5.48126 -0.507501 -2.03653 1 1
362 1 10.6905 5.36143 5.39689 7.30332 -3.28664 4.51738 1 1
363 1 12.4544 3.53591 5.41435 4.59081 1.83731 -3.66188 1 1
364 1 12.4598 5.43279 3.60954 3.36478 7.50773 12.3312 1 1
365 1 11.5716 4.44643 4.49757 3.49371 5.57548 -4.34605 1 1
366 1 11.5357 6.23189 6.27057 3.29984 7.13239 2.58507 1 1
367 1 13.3622 4.45368 6.30062 -6.81002 -2.45486 2.73515 1 1
368 1 13.3759 6.24337 4.52363 -0.125323 -6.20538 1.31961 1 1
369 1 14.218 3.53855 3.59217 9.35594 -3.44758 0.479949 1 1
370 1 14.2233 5.33777 5.38807 -2.81293 -4.30892 1.79302 1 1
371 1 16.0601 3.57441 5.41494 -2.79072 -0.241547 -5.17243 1 1
372 1 16.0096 5.31105 3.58735 5.68653 -0.632606 -1.33081 1 1
373 1 15.1172 4.41808 4.51135 -11.1709 3.45677 -2.64856 1 1
374 1 15.156 6.24781 6.3224 -2.80274 -6.2689 -8.6553 1 1
375 1 16.9193 4.49637 6.29779 -3.46801 3.81379 -5.69286 1 1
376 1 16.9273 6.22324 4.49915 -2.68672 5.87253 3.71923 1 1
377 1 17.8277 3.55822 3.52469 0.543401 2.06652 -5.50244 1 1
378 1 17.8185 5.3352 5.3805 1.82473 -8.11553 4.82626 1 1
379 1 19.584 3.50655 5.36845 1.18244 3.78277 9.15082 1 1
380 1 19.6375 5.36149 3.59978 -10.76 2.50281 3.65988 1 1
381 1 18.745 4.45532 4.44303 -2.09639 -2.86258 -2.98178 1 1
382 1 18.7275 6.21254 6.26686 2.30463 1.49579 9.95031 1 1
383 1 20.5128 4.40755 6.31165 -1.3213 3.12048 -7.14461 1 1
384 1 20.5823 6.24989 4.49906 5.89287 9.15153 7.39668 1 1
385 1 0.0404687 7.16824 3.62914 -1.88536 3.25662 0.420425 1 1
386 1 21.3858 8.91867 5.39886 7.83836 -2.47018 -0.580176 1 1
387 1 1.80952 7.1318 5.36684 3.95482 4.94205 5.48531 1 1
388 1 1.82927 8.92763 3.60614 0.34817 3.06823 2.30488 1 1
389 1 0.92992 8.06064 4.48727 6.63015 1.35746 3.65964 1 1
390 1 0.879221 9.78332 6.2569 1.66075 3.15117 -2.26177 1 1
391 1 2.7256 8.02273 6.28745 -1.55195 2.65617 1.87228 1 1
392 1 2.66985 9.78211 4.48121 9.76599 -0.774621 1.86908 1 1
393 1 3.6267 7.17892 3.60665 5.68031 1.8347 -0.5856 1 1
394 1 3.57061 8.94205 5.38004 2.70809 -3.93044 -3.64396 1 1
395 1 5.38626 7.14549 5.37451 9.64676 -3.0237 2.62183 1 1
396 1 5.37761 8.89836 3.54768 4.08424 -1.56743 -2.37579 1 1
397 1 4.48388 8.01672 4.46828 0.617657 3.81472 7.09871 1 1
398 1 4.52325 9.79045 6.27488 -1.0605 6.09581 3.46508 1 1
399 1 6.27216 8.01695 6.27952 3.25002 -1.97857 5.11388 1 1
400 1 6.2955 9.82827 4.4539 1.23244 8.29347 3.50336 1 1
401 1 7.15435 7.11216 3.56322 -2.73058 7.18875 -3.22817 1 1
402 1 7.10243 8.91019 5.37972 -4.20474 5.84112 2.52372 1 1
403 1 8.88902 7.12189 5.3315 4.89515 0.425205 3.22499 1 1
404 1 8.91508 8.92926 3.61008 0.288345 -0.492011 4.10485 1 1
405 1 8.02005 8.02946 4.48562 -3.86505 -2.71366 -1.71427 1 1
406 1 8.03545 9.83665 6.30076 -3.39949 1.49922 8.45184 1 1
407 1 9.79336 7.99285 6.24213 0.859826 -0.139416 -3.66329 1 1
408 1 9.81318 9.80238 4.51253 -3.12599 -1.8221 3.68272 1 1
409 1 10.7029 7.15418 3.60444 9.62986 -3.17377 1.56318 1 1
410 1 10.693 8.88982 5.38769 -3.66627 4.20953 3.20013 1 1
411 1 12.4422 7.12838 5.38936 -4.86505 -3.09351 4.19903 1 1
412 1 12.4745 8.9368 3.57496 -1.79322 -1.96312 5.52157 1 1
413 1 11.5865 8.03396 4.46845 6.99884 2.82772 6.141 1 1
414 1 11.5816 9.80984 6.26471 3.99258 1.50128 0.545294 1 1
415 1 13.3556 8.01518 6.30605 -2.94141 7.2227 0.458771 1 1
416 1 13.3569 9.79679 4.47586 5.93221 10.0047 0.57155 1 1
417 1 14.2703 7.10453 3.61102 1.0563 -0.459929 -0.688831 1 1
418 1 14.255 8.89343 5.41374 -1.34006 -2.92379 8.77128 1 1
419 1 16.0281 7.09574 5.39494 4.91531 -6.71626 -6.71333 1 1
420 1 16.0586 8.88788 3.62175 8.78224 -4.79092 -2.08936 1 1
421 1 15.1449 7.99774 4.49302 -5.86748 -2.20088 0.431026 1 1
422 1 15.1394 9.82189 6.29169 -3.31475 -2.27312 3.93389 1 1
423 1 16.9463 7.99764 6.2552 -2.08368 -4.93642 -2.26327 1 1
424 1 16.9726 9.80074 4.48616 -5.50457 0.982936 -6.67144 1 1
425 1 17.8324 7.06383 3.58485 -7.17006 13.6332 6.68514 1 1
426 1 17.8292 8.93778 5.33355 1.99801 0.0787229 -2.11006 1 1
427 1 19.6581 7.14705 5.39928 0.486198 -10.8663 -0.438963 1 1
428 1 19.6048 8.89785 3.59206 6.84798 -5.92694 9.18514 1 1
429 1 18.7198 7.97527 4.49416 5.35988 -1.36236 -2.85723 1 1
430 1 18.7007 9.79257 6.25217 1.04779 -4.14376 -4.53378 1 1
431 1 20.4993 8.02515 6.27278 3.0815 0.772854 -3.66001 1 1
432 1 20.4885 9.82987 4.47335 0.877461 0.423738 0.653396 1 1
433 1 21.3916 10.6987 3.56116 -2.12899 -5.0963 3.14311 1 1
434 1 21.3695 12.492 5.35445 -1.93892 6.05755 0.754948 1 1
435 1 1.81155 10.6826 5.32054 -1.1104 -6.57647 -1.32777 1 1
436 1 1.75975 12.4622 3.58238 -0.0350318 -8.18347 -4.18712 1 1
437 1 0.885304 11.5634 4.45145 -0.302294 -2.50552 -5.75329 1 1
438 1 0.876338 13.3931 6.27807 0.835663 -0.544846 -2.4036 1 1
439 1 2.66851 11.5584 6.21896 -3.18754 5.04327 2.12731 1 1
440 1 2.73513 13.3036 4.46401 3.61714 0.780613 3.83021 1 1
441 1 3.5723 10.7013 3.60247 1.74593 0.260888 1.22795 1 1
442 1 3.62533 12.4451 5.3669 -7.12222 -3.85555 3.03925 1 1
443 1 5.37725 10.7005 5.34409 4.59189 5.12456 -5.47476 1 1
444 1 5.34733 12.4694 3.55783 -0.457503 6.69224 -0.926062 1 1
445 1 4.50658 11.5655 4.46991 6.68853 -1.35609 5.51776 1 1
446 1 4.4852 13.4069 6.27013 5.68023 4.74595 5.7234 1 1
447 1 6.26312 11.6025 6.23539 -11.3484 9.27457 -7.34045 1 1
448 1 6.23375 13.3587 4.4764 -0.0105216 3.8468 1.02931 1 1
449 1 7.12512 10.7423 3.58899 3.15939 8.42559 -0.0113272 1 1
450 1 7.13374 12.5158 5.37892 4.52101 -4.08032 4.3546 1 1
451 1 8.92326 10.6787 5.3788 3.73801 3.04257 6.61854 1 1
452 1 8.91693 12.4521 3.56106 0.156396 1.65282 7.57299 1 1
453 1 8.01222 11.5769 4.47694 0.110035 -0.804723 -1.86852 1 1
454 1 8.01133 13.3827 6.24462 -0.701804 0.941107 -0.528422 1 1
455 1 9.8082 11.59 6.30144 4.39508 -4.07312 2.70108 1 1
456 1 9.84409 13.3456 4.47902 0.059679 2.67127 6.39192 1 1
457 1 10.692 10.719 3.62021 -1.23537 -6.91873 4.21344 1 1
458 1 10.7069 12.4649 5.36876 3.86257 3.47505 1.42912 1 1
459 1 12.4558 10.6999 5.39863 -5.84316 5.36785 -3.56232 1 1
460 1 12.4806 12.4413 3.5694 1.10621 10.2776 3.48595 1 1
461 1 11.5996 11.6142 4.4691 0.501136 1.48543 -3.02657 1 1
462 1 11.6037 13.3903 6.25979 6.40916 -1.76916 3.51049 1 1
463 1 13.3735 11.5813 6.27736 6.01318 -9.47317 -3.60208 1 1
464 1 13.4191 13.3451 4.51516 2.85848 4.82011 -1.63172 1 1
465 1 14.307 10.6738 3.55677 6.634 6.29445 6.722 1 1
466 1 14.3135 12.4436 5.40734 -1.09476 -3.45389 -1.68474 1 1
467 1 16.0587 10.7041 5.40336 -3.97144 4.75707 3.6048 1 1
468 1 16.0741 12.4973 3.54545 -5.86511 -5.06789 2.08725 1 1
469 1 15.2081 11.5713 4.47114 -0.633845 -1.16314 3.43387 1 1
470 1 15.2235 13.3558 6.28628 9.03253 1.6277 -1.9337 1 1
471 1 16.9566 11.583 6.31955 -1.46207 4.64244 6.77197 1 1
472 1 16.8933 13.3819 4.50571 6.76608 3.12404 -7.79674 1 1
473 1 17.8303 10.7175 3.59316 0.577675 3.46418 8.05376 1 1
474 1 17.86 12.5196 5.39781 -3.17636 0.656059 -3.78589 1 1
475 1 19.5785 10.7246 5.35118 -0.360561 -7.37358 3.86305 1 1
476 1 19.5889 12.5048 3.61319 6.16114 3.20562 8.27997 1 1
477 1 18.6969 11.6207 4.51122 4.13463 -6.51688 -1.16662 1 1
478 1 18.741 13.3753 6.33224 -0.0564268 1.87008 1.41053 1 1
479 1 20.4714 11.5603 6.25889 2.67202 -0.151364 -1.04142 1 1
480 1 20.4661 13.3719 4.49796 9.43994 3.78287 2.61191 1 1
481 1 0.0136727 14.2767 3.59597 1.99153 -1.71391 3.94578 1 1
482 1 0.00416175 16.0373 5.44609 -2.67102 8.51768 4.42867 1 1
483 1 1.80266 14.2366 5.41014 -3.29204 3.80565 3.09708 1 1
484 1 1.80437 16.0896 3.56789 -4.90591 5.74431 -1.06328 1 1
485 1 0.887878 15.1303 4.53436 5.77426 8.02005 -3.17162 1 1
486 1 0.910417 16.9666 6.31265 -3.17166 0.56432 2.91043 1 1
487 1 2.73984 15.1531 6.31125 0.966281 -1.42486 1.66283 1 1
488 1 2.65132 16.9435 4.48763 7.52567 -1.23747 0.285729 1 1
489 1 3.56157 14.2992 3.57109 1.86821 2.22956 7.85755 1 1
490 1 3.60545 16.0576 5.3534 1.54189 -0.618619 -1.68926 1 1
491 1 5.3578 14.2938 5.36432 1.86423 1.5123 -4.2584 1 1
492 1 5.32968 16.0599 3.52528 -3.13102 9.55057 7.45103 1 1
493 1 4.43531 15.183 4.46123 -2.66102 4.7458 -2.32806 1 1
494 1 4.48711 16.9031 6.27793 8.65389 3.20257 5.16211 1 1
495 1 6.25675 15.1614 6.24529 9.324 8.60164 6.76858 1 1
496 1 6.27756 16.9618 4.44589 -1.4126 4.43277 -3.48682 1 1
497 1 7.14904 14.2705 3.53499 -5.15498 -1.32001 -5.59904 1 1
498 1 7.15016 16.057 5.35695 2.39039 3.22975 -2.89694 1 1
499 1 8.91487 14.2281 5.34816 -9.37364 -1.44886 -2.57776 1 1
500 1 8.92286 16.042 3.54239 -0.73482 4.74699 -8.55194 1 1
501 1 8.05608 15.1754 4.45225 -0.722019 3.28672 3.54156 1 1
502 1 8.02077 16.9055 6.25525 -4.57846 3.73444 1.69965 1 1
503 1 9.77937 15.1221 6.25545 5.2635 -5.21622 -1.9342 1 1
504 1 9.76924 16.941 4.46913 -3.66611 -11.2222 3.52489 1 1
505 1 10.728 14.2468 3.56308 -8.65701 -5.59971 5.46343 1 1
506 1 10.6503 16.0383 5.33479 -9.30005 -0.1978 -4.15395 1 1
507 1 12.4925 14.2529 5.38109 2.9632 0.499265 -2.34805 1 1
508 1 12.5066 16.0514 3.54724 -2.5833 2.37945 1.85931 1 1
509 1 11.5987 15.1445 4.47329 7.02782 1.82835 -2.1022 1 1
510 1 11.5478 16.9376 6.25846 -1.6657 -1.34045 -9.54792 1 1
511 1 13.3627 15.125 6.28639 4.7031 -0.210992 1.37037 1 1
512 1 13.3846 16.9529 4.48752 -3.0767 5.69839 2.61455 1 1
513 1 14.2589 14.2353 3.49556 -0.351685 -2.93936 1.64376 1 1
514 1 14.2813 16.0565 5.37841 11.8909 4.12499 0.614935 1 1
515 1 16.0262 14.2916 5.40958 0.207332 5.22324 -1.2818 1 1
516 1 16.0411 16.0893 3.53462 6.22152 1.29095 -3.26407 1 1
517 1 15.1995 15.1443 4.44753 5.23346 -0.379327 -3.77163 1 1
518 1 15.1731 16.9169 6.28101 -0.785798 5.20147 -4.30189 1 1
519 1 16.895 15.1849 6.31962 3.67799 8.72554 0.328296 1 1
520 1 16.9548 16.976 4.50977 -6.38823 6.14294 -0.444494 1 1
521 1 17.8051 14.3112 3.61583 -3.6603 6.85841 3.45713 1 1
522 1 17.8038 16.0257 5.41214 -1.4855 -0.449695 0.419056 1 1
523 1 19.5968 14.24 5.41231 -3.51181 -3.40614 -7.07309 1 1
524 1 19.6953 16.0723 3.59757 -0.508306 -0.840184 2.29948 1 1
525 1 18.7228 15.1495 4.51861 1.87732 0.851438 3.88936 1 1
526 1 18.7043 16.9374 6.27691 -1.90004 -4.15619 0.400204 1 1
527 1 20.4769 15.1584 6.33644 -0.602411 -9.50706 -6.36441 1 1
528 1 20.5468 16.9998 4.50128 5.06696 -2.32495 5.23498 1 1
529 1 0.0411616 17.8336 3.57829 -3.91862 -0.361827 -0.400157 1 1
530 1 0.0404231 19.6453 5.32856 6.11015 1.64833 3.00591 1 1
531 1 1.78821 17.8056 5.3921 -3.93107 -4.63851 -3.15207 1 1
532 1 1.81394 19.6507 3.59475 -2.36351 4.38274 1.77902 1 1
533 1 0.889914 18.7522 4.44184 5.52133 -2.166 2.34587 1 1
534 1 0.873269 20.5148 6.32009 13.4983 1.83543 1.65508 1 1
535 1 2.67219 18.7016 6.28492 -1.87032 -4.3827 -9.49702 1 1
536 1 2.68394 20.5655 4.5063 -3.89901 -4.18936 0.779773 1 1
537 1 3.54336 17.8439 3.56477 4.53253 -1.12469 -3.95809 1 1
538 1 3.5406 19.6545 5.39711 1.84558 -4.15077 -0.48084 1 1
539 1 5.38013 17.8211 5.35808 0.625058 11.3163 1.81002 1 1
540 1 5.33147 19.6217 3.56007 -0.869734 6.4412 -1.92196 1 1
541 1 4.43651 18.7449 4.46139 1.22747 6.51587 -5.75446 1 1
542 1 4.42838 20.4902 6.31726 2.538 1.41288 -0.722572 1 1
543 1 6.2248 18.7168 6.28338 -7.93281 1.67104 2.6445 1 1
544 1 6.25308 20.5055 4.46396 -2.35988 -7.65568 -3.99522 1 1
545 1 7.18057 17.8069 3.56777 -0.712252 -0.124533 3.07106 1 1
546 1 7.08414 19.6429 5.33526 -7.01691 -1.73347 -0.192214 1 1
547 1 8.90644 17.8332 5.38376 -1.18954 -3.01111 -0.250805 1 1
548 1 8.87635 19.6436 3.63608 -4.64997 -1.50506 -0.480309 1 1
549 1 7.9936 18.7182 4.52186 -3.11921 1.25007 0.570974 1 1
550 1 7.95695 20.4812 6.31044 -5.91986 -2.12673 -3.12613 1 1
551 1 9.77587 18.7677 6.27187 -0.622741 0.374544 -4.99981 1 1
552 1 9.78847 20.5141 4.51084 -4.16621 -3.61839 -0.30127 1 1
553 1 10.705 17.8424 3.56513 1.78832 -0.907612 -7.48284 1 1
554 1 10.6806 19.6074 5.34792 3.97533 3.16097 2.1995 1 1
555 1 12.4801 17.8486 5.40032 0.326858 -0.497788 -0.24331 1 1
556 1 12.5075 19.5759 3.60486 -8.76419 -2.39871 -4.00326 1 1