ITEM: TIMESTEP
2400
ITEM: NUMBER OF ATOMS
2952
ITEM: BOX BOUNDS pp pp mm
0.0000000000000000e+00 2.1394294200000001e+01
0.0000000000000000e+00 2.1394294200000001e+01
-4.4571446250000002e-01 5.3485735500000004e+01
ITEM: ATOMS id type x y z vx vy vz v_is_diamond c_structure_type
1 1 0 0 0 0 0 0 1 3
2 1 1.78286 1.78286 0 0 0 0 1 3
3 1 0.891429 0.891429 0.891429 0 0 0 1 2
4 1 0.854981 2.63256 2.65115 -0.374293 1.38089 -3.24646 1 1
5 1 2.64542 0.906565 2.63695 -8.42115 8.11101 1.19772 1 1
6 1 2.67429 2.67429 0.891429 0 0 0 1 2
7 1 -0.0191795 1.8151 1.76906 -0.91216 -0.251252 0.80002 1 1
8 1 1.76551 21.3969 1.76948 1.17301 -2.59854 -1.89099 1 1
9 1 1.79577 3.57596 1.75051 2.4602 2.17165 -0.0029222 1 1
10 1 3.56824 1.76074 1.78514 5.04283 -6.92097 1.8466 1 1
11 1 3.56572 0 0 0 0 0 1 3
12 1 5.34857 1.78286 0 0 0 0 1 3
13 1 4.45714 0.891429 0.891429 0 0 0 1 2
14 1 4.44024 2.68842 2.66222 0.669885 -6.65995 2.89962 1 1
15 1 6.27051 0.89947 2.67365 3.80537 -11.0168 2.38907 1 1
16 1 6.24 2.67429 0.891429 0 0 0 1 2
17 1 7.1732 1.79677 1.81302 -11.384 1.61489 -1.63573 1 1
18 1 7.13143 0 0 0 0 0 1 3
19 1 8.02286 0.891429 0.891429 0 0 0 1 2
20 1 8.03687 2.73431 2.67471 6.00005 0.941792 2.29692 1 1
21 1 8.91429 1.78286 0 0 0 0 1 3
22 1 9.79981 0.866022 2.64654 0.351773 -4.0579 0.410261 1 1
23 1 9.80572 2.67429 0.891429 0 0 0 1 2
24 1 8.89088 -0.0306371 1.78079 -3.53959 -3.79955 5.57927 1 1
25 1 10.6841 1.79448 1.76137 -2.07869 -4.87927 1.85822 1 1
26 1 10.6971 0 0 0 0 0 1 3
27 1 12.48 1.78286 0 0 0 0 1 3
28 1 11.5886 0.891429 0.891429 0 0 0 1 2
29 1 11.6122 2.64383 2.68622 1.23717 -0.978784 4.46238 1 1
30 1 13.4244 0.863985 2.64448 4.70842 5.83875 2.25657 1 1
31 1 13.3714 2.67429 0.891429 0 0 0 1 2
32 1 14.2836 1.80883 1.80349 1.75685 4.59216 -2.02822 1 1
33 1 14.2629 0 0 0 0 0 1 3
34 1 16.0457 1.78286 0 0 0 0 1 3
35 1 15.1543 0.891429 0.891429 0 0 0 1 2
36 1 15.1661 2.68793 2.66064 11.8619 -3.478 9.28262 1 1
37 1 16.941 0.908149 2.67923 1.80012 4.31207 1.8594 1 1
38 1 16.9371 2.67429 0.891429 0 0 0 1 2
39 1 16.0463 0.0139806 1.76904 3.08162 -7.11388 -6.5083 1 1
40 1 17.8324 1.75935 1.7761 -7.11001 5.13276 0.646264 1 1
41 1 17.8286 0 0 0 0 0 1 3
42 1 19.6114 1.78286 0 0 0 0 1 3
43 1 18.72 0.891429 0.891429 0 0 0 1 2
44 1 18.6848 2.63873 2.68442 -4.24993 -0.771364 -1.17816 1 1
45 1 20.4821 0.880996 2.62435 -4.03122 0.843659 -5.21871 1 1
46 1 20.5029 2.67429 0.891429 0 0 0 1 2
47 1 0 3.56572 0 0 0 0 1 3
48 1 1.78286 5.34857 0 0 0 0 1 3
49 1 0.891429 4.45714 0.891429 0 0 0 1 2
50 1 0.882537 6.23364 2.63951 -3.28251 -4.71868 4.44856 1 1
51 1 2.68372 4.43906 2.68504 -2.09837 0.279563 5.08746 1 1
52 1 2.67429 6.24 0.891429 0 0 0 1 2
53 1 3.59163 5.33597 1.83589 -4.15987 1.50031 -6.30869 1 1
54 1 5.34052 3.58493 1.78008 -3.61324 -9.37483 1.6759 1 1
55 1 3.56572 3.56572 0 0 0 0 1 3
56 1 5.34857 5.34857 0 0 0 0 1 3
57 1 4.45714 4.45714 0.891429 0 0 0 1 2
58 1 4.4449 6.27107 2.71128 -10.5685 2.62564 7.73055 1 1
59 1 6.23727 4.47502 2.68518 4.52004 -0.105895 1.77881 1 1
60 1 6.24 6.24 0.891429 0 0 0 1 2
61 1 5.34626 7.17196 1.75823 -3.16195 4.86644 -8.82251 1 1
62 1 7.14499 5.34024 1.79863 8.42596 -4.39431 -12.407 1 1
63 1 7.13143 3.56572 0 0 0 0 1 3
64 1 8.90632 3.58059 1.79383 1.33517 -6.46401 8.94769 1 1
65 1 8.02286 4.45714 0.891429 0 0 0 1 2
66 1 8.02814 6.26317 2.6895 2.14024 -10.357 -3.72893 1 1
67 1 8.91429 5.34857 0 0 0 0 1 3
68 1 9.81059 4.42221 2.63986 10.7305 5.74755 -0.144747 1 1
69 1 9.80572 6.24 0.891429 0 0 0 1 2
70 1 10.6951 5.3701 1.8044 -2.6505 -0.210543 -0.200345 1 1
71 1 12.4936 3.53155 1.80152 1.33489 -1.42203 -1.65585 1 1
72 1 10.6971 3.56572 0 0 0 0 1 3
73 1 12.48 5.34857 0 0 0 0 1 3
74 1 11.5886 4.45714 0.891429 0 0 0 1 2
75 1 11.5531 6.26332 2.70138 -5.30145 2.13882 -16.4695 1 1
76 1 13.3684 4.4346 2.66593 2.14351 0.67777 8.43376 1 1
77 1 13.3714 6.24 0.891429 0 0 0 1 2
78 1 14.257 5.3257 1.76574 1.93679 0.0129919 4.72601 1 1
79 1 16.0326 3.59453 1.76991 -4.12491 0.593896 2.07555 1 1
80 1 14.2629 3.56572 0 0 0 0 1 3
81 1 16.0457 5.34857 0 0 0 0 1 3
82 1 15.1543 4.45714 0.891429 0 0 0 1 2
83 1 15.126 6.25829 2.68775 -2.63584 -5.62376 -0.0731438 1 1
84 1 16.8827 4.42604 2.73623 -3.942 1.03814 -1.613 1 1
85 1 16.9371 6.24 0.891429 0 0 0 1 2
86 1 17.7867 5.35273 1.81272 3.81394 1.90326 0.142543 1 1
87 1 19.609 3.53311 1.76977 -3.78847 3.51894 -0.987814 1 1
88 1 21.4062 5.33943 1.79227 -0.122844 -0.420251 1.72538 1 1
89 1 17.8286 3.56572 0 0 0 0 1 3
90 1 19.6114 5.34857 0 0 0 0 1 3
91 1 18.72 4.45714 0.891429 0 0 0 1 2
92 1 18.7219 6.21898 2.69055 3.77692 -1.78114 -2.17428 1 1
93 1 20.4356 4.43456 2.64571 5.95844 -3.26935 -0.762053 1 1
94 1 20.5029 6.24 0.891429 0 0 0 1 2
95 1 19.59 7.13645 1.78193 3.62668 -3.61738 -1.3916 1 1
96 1 1.81249 7.1337 1.79271 -6.60312 -1.36798 0.19522 1 1
97 1 0 7.13143 0 0 0 0 1 3
98 1 0.891429 8.02286 0.891429 0 0 0 1 2
99 1 2.65714 8.0333 2.67406 -0.708477 -3.83038 2.48429 1 1
100 1 1.78286 8.91429 0 0 0 0 1 3
101 1 0.901642 9.79897 2.68716 0.592468 -2.88959 -2.33865 1 1
102 1 2.67429 9.80572 0.891429 0 0 0 1 2
103 1 1.79268 10.6774 1.77325 -0.616887 -2.72231 0.171721 1 1
104 1 3.53773 8.92454 1.80274 2.83646 0.600089 1.59508 1 1
105 1 3.56572 7.13143 0 0 0 0 1 3
106 1 4.45714 8.02286 0.891429 0 0 0 1 2
107 1 6.1902 8.06136 2.69527 -8.18549 1.01773 2.47835 1 1
108 1 5.34857 8.91429 0 0 0 0 1 3
109 1 4.41434 9.82788 2.73883 0.766936 -4.08143 5.22222 1 1
110 1 6.24 9.80572 0.891429 0 0 0 1 2
111 1 7.10985 8.94576 1.77938 1.29818 -1.92445 -7.01335 1 1
112 1 8.87375 7.19298 1.81035 -2.46172 -4.2627 1.93897 1 1
113 1 7.13143 7.13143 0 0 0 0 1 3
114 1 8.02286 8.02286 0.891429 0 0 0 1 2
115 1 9.79129 8.04028 2.67808 8.4035 -3.30113 -5.39219 1 1
116 1 8.00601 9.82462 2.69754 -8.14579 2.93559 -1.77483 1 1
117 1 8.91429 8.91429 0 0 0 0 1 3
118 1 9.80572 9.80572 0.891429 0 0 0 1 2
119 1 10.6986 8.94127 1.77822 2.57939 -2.90756 6.33822 1 1
120 1 12.4698 7.12316 1.78961 -2.89141 5.63387 -6.53604 1 1
121 1 10.6971 7.13143 0 0 0 0 1 3
122 1 11.5886 8.02286 0.891429 0 0 0 1 2
123 1 13.3504 8.04669 2.71839 8.62711 5.62554 3.87012 1 1
124 1 12.48 8.91429 0 0 0 0 1 3
125 1 11.5854 9.86249 2.70294 -3.37329 0.146411 -3.1069 1 1
126 1 13.3714 9.80572 0.891429 0 0 0 1 2
127 1 12.5053 10.7471 1.77828 7.69954 -4.15392 0.189368 1 1
128 1 16.0714 7.12336 1.84806 -2.57314 -3.71125 1.37363 1 1
129 1 14.2576 8.94438 1.80974 -6.65369 -5.96807 9.52888 1 1
130 1 14.2629 7.13143 0 0 0 0 1 3
131 1 15.1543 8.02286 0.891429 0 0 0 1 2
132 1 16.9427 8.00972 2.76053 8.83088 4.00514 2.37939 1 1
133 1 16.0457 8.91429 0 0 0 0 1 3
134 1 15.1471 9.80527 2.7024 -0.746765 -9.37263 1.70236 1 1
135 1 16.9371 9.80572 0.891429 0 0 0 1 2
136 1 16.0467 10.7463 1.76743 5.82004 -7.30858 5.27848 1 1
137 1 17.8438 8.90249 1.80663 -3.00189 0.397068 9.74716 1 1
138 1 -0.00233984 8.89588 1.75777 -1.63926 -1.30236 4.36431 1 1
139 1 17.8286 7.13143 0 0 0 0 1 3
140 1 18.72 8.02286 0.891429 0 0 0 1 2
141 1 20.465 8.03061 2.65514 -4.06687 11.5567 -5.40932 1 1
142 1 19.6114 8.91429 0 0 0 0 1 3
143 1 18.7425 9.82426 2.7225 2.27226 -1.92528 -5.16317 1 1
144 1 20.5029 9.80572 0.891429 0 0 0 1 2
145 1 0 10.6971 0 0 0 0 1 3
146 1 1.78286 12.48 0 0 0 0 1 3
147 1 0.891429 11.5886 0.891429 0 0 0 1 2
148 1 2.64924 11.5654 2.68272 -3.27617 -4.71388 8.50197 1 1
149 1 0.888557 13.3401 2.66747 6.37895 -4.518 3.44062 1 1
150 1 2.67429 13.3714 0.891429 0 0 0 1 2
151 1 21.4018 12.443 1.78955 9.45782 -1.3432 -6.58387 1 1
152 1 5.33119 10.6942 1.79517 3.46299 8.61812 0.490533 1 1
153 1 3.57557 12.4618 1.81096 -5.72911 0.828265 2.61402 1 1
154 1 3.56572 10.6971 0 0 0 0 1 3
155 1 5.34857 12.48 0 0 0 0 1 3
156 1 4.45714 11.5886 0.891429 0 0 0 1 2
157 1 6.21387 11.5803 2.6402 -0.216941 -0.987571 2.83723 1 1
158 1 4.47838 13.3648 2.65877 -3.58814 -7.39184 -0.403081 1 1
159 1 6.24 13.3714 0.891429 0 0 0 1 2
160 1 5.37751 14.232 1.81798 -6.6633 9.0832 7.15813 1 1
161 1 8.88287 10.7388 1.79427 -0.538016 9.96293 3.01902 1 1
162 1 7.13824 12.4784 1.7903 -0.272218 1.80101 -4.89106 1 1
163 1 7.13143 10.6971 0 0 0 0 1 3
164 1 8.02286 11.5886 0.891429 0 0 0 1 2
165 1 8.91429 12.48 0 0 0 0 1 3
166 1 9.79397 11.6256 2.66192 -4.73014 4.10974 1.3891 1 1
167 1 8.03225 13.3591 2.67769 -2.99083 -5.87918 -1.79064 1 1
168 1 9.80572 13.3714 0.891429 0 0 0 1 2
169 1 10.7146 12.4719 1.80858 0.833408 4.341 3.76798 1 1
170 1 10.6971 10.6971 0 0 0 0 1 3
171 1 12.48 12.48 0 0 0 0 1 3
172 1 11.5886 11.5886 0.891429 0 0 0 1 2
173 1 13.4079 11.6072 2.68914 2.63776 2.26134 -5.97242 1 1
174 1 11.6125 13.3268 2.7072 1.63498 4.58374 -3.16729 1 1
175 1 13.3714 13.3714 0.891429 0 0 0 1 2
176 1 12.4891 14.2251 1.78847 0.600876 4.83375 5.41655 1 1
177 1 14.2578 12.5146 1.78007 2.08503 -3.63359 0.360709 1 1
178 1 14.2629 10.6971 0 0 0 0 1 3
179 1 16.0457 12.48 0 0 0 0 1 3
180 1 15.1543 11.5886 0.891429 0 0 0 1 2
181 1 16.9207 11.6293 2.67152 1.80113 1.11811 1.09419 1 1
182 1 15.1486 13.3992 2.64944 -8.87057 -0.920287 -1.52114 1 1
183 1 16.9371 13.3714 0.891429 0 0 0 1 2
184 1 17.8275 12.4759 1.75195 -6.67116 -3.25629 -9.52633 1 1
185 1 19.6119 10.7288 1.7995 1.74218 0.318545 -9.17247 1 1
186 1 17.8286 10.6971 0 0 0 0 1 3
187 1 19.6114 12.48 0 0 0 0 1 3
188 1 18.72 11.5886 0.891429 0 0 0 1 2
189 1 20.4865 11.5838 2.72493 5.08884 -8.40291 4.62901 1 1
190 1 18.7168 13.3456 2.67247 5.137 3.51456 3.81578 1 1
191 1 20.5029 13.3714 0.891429 0 0 0 1 2
192 1 19.6166 14.2599 1.77847 8.54051 -6.56825 -5.59045 1 1
193 1 1.76286 14.2651 1.82147 -0.243383 -6.51335 -0.677805 1 1
194 1 0 14.2629 0 0 0 0 1 3
195 1 1.78286 16.0457 0 0 0 0 1 3
196 1 0.891429 15.1543 0.891429 0 0 0 1 2
197 1 0.919277 16.9465 2.70142 12.9318 -3.14635 -5.69735 1 1
198 1 2.68054 15.1582 2.72276 -2.26862 2.79573 -7.92458 1 1
199 1 2.67429 16.9371 0.891429 0 0 0 1 2
200 1 0.000703739 16.0318 1.79752 -3.0006 -3.14874 -2.2595 1 1
201 1 3.61459 16.0526 1.79175 -4.24201 -0.0473216 -7.28687 1 1
202 1 3.56572 14.2629 0 0 0 0 1 3
203 1 5.34857 16.0457 0 0 0 0 1 3
204 1 4.45714 15.1543 0.891429 0 0 0 1 2
205 1 4.45623 16.9462 2.70111 -1.78931 2.38035 -1.68887 1 1
206 1 6.23691 15.1869 2.74884 -0.753237 -2.17282 1.39892 1 1
207 1 6.24 16.9371 0.891429 0 0 0 1 2
208 1 7.14349 16.075 1.8165 2.89922 -4.74666 -1.90923 1 1
209 1 5.35324 17.8255 1.79568 4.44662 -1.28045 -1.54203 1 1
210 1 8.92972 14.2076 1.76686 1.49455 5.40756 0.622218 1 1
211 1 7.13143 14.2629 0 0 0 0 1 3
212 1 8.02286 15.1543 0.891429 0 0 0 1 2
213 1 7.97619 16.9428 2.71583 9.66866 5.81087 -4.54898 1 1
214 1 8.91429 16.0457 0 0 0 0 1 3
215 1 9.80736 15.1107 2.68264 -1.74212 1.11422 0.508751 1 1
216 1 9.80572 16.9371 0.891429 0 0 0 1 2
217 1 8.92725 17.8433 1.78249 -0.54562 5.44954 1.80288 1 1
218 1 10.6796 16.0521 1.80689 10.5997 -5.1951 1.22101 1 1
219 1 10.6971 14.2629 0 0 0 0 1 3
220 1 12.48 16.0457 0 0 0 0 1 3
221 1 11.5886 15.1543 0.891429 0 0 0 1 2
222 1 11.6122 16.9418 2.66682 1.36856 5.16849 -3.15404 1 1
223 1 13.3407 15.1443 2.65513 -13.2698 1.44378 -3.24515 1 1
224 1 13.3714 16.9371 0.891429 0 0 0 1 2
225 1 12.5218 17.8069 1.79042 6.84355 1.54904 5.59493 1 1
226 1 16.0615 14.2694 1.77386 1.84199 5.43987 3.67005 1 1
227 1 14.2932 16.0419 1.81151 -3.47579 -4.75673 1.73266 1 1
228 1 14.2629 14.2629 0 0 0 0 1 3
229 1 16.0457 16.0457 0 0 0 0 1 3
230 1 15.1543 15.1543 0.891429 0 0 0 1 2
231 1 15.1585 16.8846 2.68903 0.791192 -3.68238 0.110128 1 1
232 1 16.9246 15.1591 2.64257 2.94175 -5.65957 3.07497 1 1
233 1 16.9371 16.9371 0.891429 0 0 0 1 2
234 1 17.8647 16.0404 1.75991 -3.06838 0.363998 1.12589 1 1
235 1 17.8286 14.2629 0 0 0 0 1 3
236 1 19.6114 16.0457 0 0 0 0 1 3
237 1 18.72 15.1543 0.891429 0 0 0 1 2
238 1 18.7391 16.949 2.67764 -5.74201 -1.27275 -5.13607 1 1
239 1 20.5244 15.1786 2.69909 1.4332 -6.67519 -2.55535 1 1
240 1 20.5029 16.9371 0.891429 0 0 0 1 2
241 1 19.6116 17.8632 1.78849 -2.14429 -10.1411 -2.10009 1 1
242 1 1.7729 17.8609 1.78846 1.97413 -8.789 2.25766 1 1
243 1 0 17.8286 0 0 0 0 1 3
244 1 1.78286 19.6114 0 0 0 0 1 3
245 1 0.891429 18.72 0.891429 0 0 0 1 2
246 1 0.89415 20.4953 2.69475 2.07023 -0.934929 4.61216 1 1
247 1 2.63049 18.7663 2.68729 6.76452 -0.837566 0.328585 1 1
248 1 2.67429 20.5029 0.891429 0 0 0 1 2
249 1 3.55962 19.612 1.78953 -9.85636 0.306918 2.79333 1 1
250 1 0.00297245 19.5728 1.7897 -6.63922 4.93764 -0.0287758 1 1
251 1 5.3794 0.012063 1.80785 -0.198789 0.431884 -0.718017 1 1
252 1 3.56572 17.8286 0 0 0 0 1 3
253 1 5.34857 19.6114 0 0 0 0 1 3
254 1 4.45714 18.72 0.891429 0 0 0 1 2
255 1 4.44193 20.5121 2.64718 3.78133 -0.149592 4.77902 1 1
256 1 6.2329 18.7499 2.67698 2.28745 5.15335 -4.31065 1 1
257 1 6.24 20.5029 0.891429 0 0 0 1 2
258 1 7.14884 19.5814 1.78943 6.23697 0.403736 -7.27213 1 1
259 1 7.13143 17.8286 0 0 0 0 1 3
260 1 8.02286 18.72 0.891429 0 0 0 1 2
261 1 7.99088 20.5251 2.6833 -3.98623 -1.67664 5.09227 1 1
262 1 8.91429 19.6114 0 0 0 0 1 3
263 1 9.85362 18.6908 2.67779 -4.94787 -3.04826 -5.65671 1 1
264 1 9.80572 20.5029 0.891429 0 0 0 1 2
265 1 10.7058 19.5879 1.74741 4.27641 -1.00198 3.18182 1 1
266 1 12.4922 21.4188 1.79112 -2.96803 4.33845 -0.181817 1 1
267 1 10.6971 17.8286 0 0 0 0 1 3
268 1 12.48 19.6114 0 0 0 0 1 3
269 1 11.5886 18.72 0.891429 0 0 0 1 2
270 1 11.6587 20.4684 2.68133 7.94959 3.56762 -7.81433 1 1
271 1 13.4328 18.6221 2.67237 1.21705 0.430014 2.72115 1 1
272 1 13.3714 20.5029 0.891429 0 0 0 1 2
273 1 14.2792 19.5941 1.81584 -13.2057 0.786776 3.0761 1 1
274 1 16.0006 17.7955 1.77571 -3.3709 -2.19667 -3.7151 1 1
275 1 14.2629 17.8286 0 0 0 0 1 3
276 1 16.0457 19.6114 0 0 0 0 1 3
277 1 15.1543 18.72 0.891429 0 0 0 1 2
278 1 15.2165 20.4958 2.69595 0.669997 1.17202 12.0265 1 1
279 1 16.9631 18.7254 2.65845 1.79264 0.93692 -0.408955 1 1
280 1 16.9371 20.5029 0.891429 0 0 0 1 2
281 1 19.6338 21.4009 1.76275 3.32989 7.13559 -4.56351 1 1
282 1 17.8404 19.6071 1.76686 -5.59952 -0.822554 -2.41231 1 1
283 1 17.8286 17.8286 0 0 0 0 1 3
284 1 19.6114 19.6114 0 0 0 0 1 3
285 1 18.72 18.72 0.891429 0 0 0 1 2
286 1 18.7298 20.5155 2.67273 -12.3251 4.31664 -3.04707 1 1
287 1 20.5142 18.6928 2.66437 -0.832803 -1.388 1.53549 1 1
288 1 20.5029 20.5029 0.891429 0 0 0 1 2
289 1 1.74803 1.75758 3.57545 0.888446 -0.234201 -3.97906 1 1
290 1 0.898606 0.851531 4.46174 -1.38427 8.42824 -0.531905 1 1
291 1 2.64847 2.63038 4.44916 -0.283052 1.56075 -5.83592 1 1
292 1 1.78738 21.4103 5.36433 4.16982 7.85623 -2.05373 1 1
293 1 1.77132 3.52943 5.35497 3.00956 -6.45996 5.41835 1 1
294 1 -0.0448317 1.74746 5.38084 2.28103 4.826 4.62968 1 1
295 1 -0.0237603 21.4048 3.55938 -0.560025 1.41235 6.76422 1 1
296 1 3.61122 1.77565 5.34264 -8.83598 1.37281 2.65021 1 1
297 1 5.37633 1.82236 3.54752 1.33771 -7.22189 6.81055 1 1
298 1 4.474 0.913715 4.44347 0.112039 -4.44441 -4.98268 1 1
299 1 6.15676 0.89509 6.20671 -5.55016 5.4645 6.42251 1 1
300 1 6.24298 2.67085 4.4279 5.82495 3.00977 -1.15275 1 1
301 1 3.55148 21.4288 3.54858 1.31636 1.944 6.28836 1 1
302 1 7.11991 0.0275923 3.55181 0.995228 -6.19132 3.47119 1 1
303 1 5.29907 21.3665 5.33767 0.263455 0.413514 -3.50773 1 1
304 1 7.15545 3.61171 3.55393 3.19509 1.95044 -7.21837 1 1
305 1 7.17787 1.75658 5.31352 -5.23901 6.59003 -4.40151 1 1
306 1 8.90047 1.78299 3.54831 -2.61644 -8.302 4.15913 1 1
307 1 8.00986 0.879375 4.42298 0.667208 3.87308 2.76997 1 1
308 1 7.98406 2.66741 6.19178 -3.62156 3.0512 -1.79107 1 1
309 1 9.79074 0.924918 6.25672 0.423567 -2.96647 -0.598818 1 1
310 1 9.80967 2.71839 4.46247 -3.00017 -5.95063 6.71166 1 1
311 1 10.6871 1.83039 5.35163 -2.19797 0.293555 -0.46588 1 1
312 1 12.5599 1.78334 3.56468 -3.72467 2.12462 0.665751 1 1
313 1 11.6099 0.894632 4.42676 0.615482 7.51245 -0.364582 1 1
314 1 11.6275 2.72125 6.21173 7.76715 -5.47728 4.47086 1 1
315 1 13.4038 2.66008 4.47219 4.77631 0.448362 9.91284 1 1
316 1 13.3703 0.887156 6.24871 4.86282 -9.14619 -4.97821 1 1
317 1 12.4644 3.589 5.33939 2.46999 14.9288 -1.73636 1 1
318 1 14.2851 1.76829 5.33935 -4.20571 9.72562 6.40979 1 1
319 1 12.5202 -0.0147701 5.33884 -2.69888 -5.22884 2.74659 1 1
320 1 14.2707 3.5508 3.60486 -0.0988927 3.0025 1.20627 1 1
321 1 16.0702 1.76259 3.59482 -4.72806 -5.80042 3.6853 1 1
322 1 15.1478 0.899265 4.46191 -9.07414 -1.79148 -4.48876 1 1
323 1 15.1505 2.70476 6.30378 1.871 16.7867 0.300891 1 1
324 1 16.9726 2.62775 4.52812 -0.753128 -11.1375 -0.0777768 1 1
325 1 17.8757 1.7363 5.41119 -0.795698 -1.66454 3.4266 1 1
326 1 16.0807 21.4041 5.34304 -10.3323 -1.84561 -5.87387 1 1
327 1 19.5623 1.77288 3.55326 -2.60388 -7.66498 -0.316458 1 1
328 1 18.739 0.858188 4.46256 6.10991 -3.34185 -1.61054 1 1
329 1 20.4845 2.64667 4.46484 -10.3524 -4.33972 -4.1825 1 1
330 1 17.8278 -0.0241136 3.57608 2.64523 -7.26268 1.89712 1 1
331 1 19.6248 21.4087 5.34435 -7.79805 -2.60304 4.45441 1 1
332 1 -0.0961402 3.50058 3.53468 -1.49425 -4.2219 -1.38602 1 1
333 1 1.77781 5.3386 3.53908 7.04576 2.33212 0.527738 1 1
334 1 0.890384 4.42493 4.44903 -5.89015 0.792688 4.34432 1 1
335 1 2.64984 4.39219 6.24159 6.1389 3.70167 -7.90386 1 1
336 1 2.61614 6.19055 4.4281 2.34615 7.73989 -0.43543 1 1
337 1 3.56018 3.54317 3.56003 -0.244387 3.76 -9.92583 1 1
338 1 -0.0184307 5.26983 5.39664 2.40617 8.94906 -3.3056 1 1
339 1 3.54227 5.32369 5.36784 -7.31493 0.370194 0.335186 1 1
340 1 5.34859 3.53774 5.35655 -7.9134 4.49851 0.0576914 1 1
341 1 5.31797 5.34739 3.61656 -4.71427 1.3649 -6.53709 1 1
342 1 4.49193 4.43523 4.48619 3.11464 -0.103961 -4.06006 1 1
343 1 4.46007 6.20583 6.20408 5.22915 -4.32898 5.21563 1 1
344 1 6.19465 6.24294 4.48773 5.80112 0.619768 -1.20644 1 1
345 1 7.09709 5.34811 5.31453 1.33651 -0.854247 -1.09671 1 1
346 1 5.34302 7.13283 5.3793 -5.82861 -1.69388 1.98178 1 1
347 1 6.25177 4.42658 6.21578 -1.6315 6.60636 -4.29431 1 1
348 1 8.90989 3.5768 5.33939 2.65344 4.99135 0.287954 1 1
349 1 10.7438 3.5673 3.54235 3.06913 0.0348588 -2.34779 1 1
350 1 8.95033 5.38802 3.586 -1.60113 -2.07338 2.95962 1 1
351 1 8.01732 4.51162 4.42771 4.36558 -5.30325 -3.69802 1 1
352 1 7.98487 6.22936 6.23694 11.3806 -0.48723 7.64358 1 1
353 1 9.77535 4.52142 6.23421 4.18015 -5.89833 0.5172 1 1
354 1 9.78656 6.27145 4.46 3.30535 2.06844 2.8905 1 1
355 1 10.6377 5.39054 5.34486 -0.42545 2.68369 -1.50154 1 1
356 1 12.4967 5.35986 3.54651 1.6787 6.88953 -0.969233 1 1
357 1 11.5233 4.49715 4.4685 -6.90756 3.89539 -3.21772 1 1
358 1 13.3719 6.24863 4.42941 4.25925 5.74982 -3.97421 1 1
359 1 14.2414 5.36185 5.33505 -5.32481 -1.4448 5.16254 1 1
360 1 16.0877 3.55385 5.42705 -3.88471 9.07507 2.47174 1 1
361 1 17.8412 3.53263 3.5605 5.1083 -1.14923 -4.10011 1 1
362 1 15.9682 5.31292 3.59751 -10.008 -3.78923 -1.79599 1 1
363 1 15.1143 4.45705 4.51207 -6.19321 2.05377 -4.12696 1 1
364 1 16.9201 6.22083 4.45515 -1.20912 10.4081 0.467333 1 1
365 1 16.9423 4.43558 6.27806 2.93581 1.09981 -1.08248 1 1
366 1 16.011 7.11935 5.35142 -4.15582 -0.788947 -2.64226 1 1
367 1 15.0898 6.21275 6.24504 -5.29825 -5.91587 1.28055 1 1
368 1 19.6275 3.52023 5.40559 -4.95927 -2.18753 3.10477 1 1
369 1 17.8558 5.2896 5.34317 -0.132733 4.21669 -5.57117 1 1
370 1 19.6233 5.31629 3.5775 -4.28251 1.00721 -1.54975 1 1
371 1 18.7465 4.35214 4.49194 -2.97818 3.02843 -7.43473 1 1
372 1 20.5099 4.41285 6.33264 2.40324 -4.50126 3.87379 1 1
373 1 20.4933 6.15189 4.48941 -6.81042 10.167 1.99711 1 1
374 1 19.6255 7.05069 5.38345 -5.88635 10.0066 -1.47221 1 1
375 1 -0.0320222 7.10089 3.56628 0.357221 -3.91084 -4.3244 1 1
376 1 1.7098 7.07554 5.41444 2.91696 -1.87889 3.04409 1 1
377 1 1.7364 8.91528 3.57916 -1.37682 -3.71767 -9.6608 1 1
378 1 0.858961 8.01988 4.51215 0.812171 -0.730247 1.56011 1 1
379 1 2.62174 8.03748 6.28877 -0.284075 -5.57336 4.06222 1 1
380 1 0.859343 9.83895 6.31549 1.58719 2.81958 1.06008 1 1
381 1 2.63816 9.75401 4.47917 -0.161551 6.54684 1.07604 1 1
382 1 21.3384 8.90138 5.41379 3.36737 7.02228 -1.72124 1 1
383 1 1.74796 10.6766 5.38399 2.98665 4.25457 -5.7686 1 1
384 1 3.5261 7.14276 3.58807 -1.04219 6.41995 1.0326 1 1
385 1 7.13127 7.15974 3.554 3.88302 4.36218 -1.59049 1 1
386 1 3.52458 10.6612 3.61166 4.0706 5.91442 0.274251 1 1
387 1 3.4757 8.86953 5.38444 -5.522 -0.796644 3.92484 1 1
388 1 5.34002 8.91524 3.59816 -5.23024 8.19457 2.5123 1 1
389 1 4.40244 8.01643 4.4552 -3.23088 -7.31494 -5.62487 1 1
390 1 4.36843 9.80023 6.23738 -1.60777 1.38955 1.45884 1 1
391 1 6.21041 9.8228 4.49625 2.90916 -4.24838 -4.23989 1 1
392 1 8.87282 7.12499 5.39531 2.60083 0.824935 1.61755 1 1
393 1 7.08275 8.93785 5.39696 -3.89984 3.59588 -6.1507 1 1
394 1 8.88097 8.9357 3.58107 2.02125 -6.18801 4.50006 1 1
395 1 7.99323 8.01848 4.49626 -3.84468 5.07119 -2.79133 1 1
396 1 9.81682 9.82758 4.47794 -0.756021 8.85698 -4.52995 1 1
397 1 10.6648 8.94072 5.36997 3.94512 1.17336 -1.59464 1 1
398 1 10.6591 10.7104 3.58282 -0.023819 4.42684 -0.987137 1 1
399 1 9.72686 8.05338 6.27786 6.73387 2.25902 -2.69402 1 1
400 1 12.4707 7.13561 5.38094 -1.06696 -5.24222 -5.06531 1 1
401 1 10.6737 7.19376 3.5717 -0.637747 6.51597 5.95479 1 1
402 1 12.4114 8.89776 3.61789 1.77651 -5.20039 -8.06566 1 1
403 1 11.5128 8.04466 4.45212 3.93876 4.4952 -3.36113 1 1
404 1 13.3081 9.79963 4.50982 -0.950471 -7.78873 -1.82206 1 1
405 1 14.2854 7.15145 3.59641 1.51076 5.58609 2.52797 1 1
406 1 14.2419 8.88906 5.37991 1.60168 6.04823 1.25857 1 1
407 1 17.8353 7.06631 3.65303 -3.29184 -1.346 1.7345 1 1
408 1 16.0208 8.91531 3.63886 6.22474 2.97177 -6.0586 1 1
409 1 15.1402 8.01405 4.48907 -1.26236 5.09247 1.11289 1 1
410 1 16.8913 9.81158 4.54002 0.191915 -7.75876 -8.83808 1 1
411 1 15.9691 10.7201 5.42092 -4.17399 -3.26391 -3.69191 1 1
412 1 16.8694 7.97727 6.269 5.31522 3.54339 -2.46973 1 1
413 1 17.795 8.90423 5.45263 2.10158 -2.48279 -3.30911 1 1
414 1 19.6037 8.89742 3.5876 -2.88984 -4.08765 2.73137 1 1
415 1 18.7241 7.99864 4.49906 -3.71438 -1.51499 -1.66511 1 1
416 1 18.6898 9.84018 6.32791 3.48179 -2.36414 3.44724 1 1
417 1 20.4846 9.80545 4.4421 4.26489 3.7415 1.37083 1 1
418 1 20.5042 7.99619 6.28257 1.95981 -1.26089 2.64369 1 1
419 1 19.5867 10.7288 5.39534 -0.0793009 -0.85607 5.4473 1 1
420 1 21.3865 10.6703 3.57501 -1.01576 4.4963 -3.79286 1 1
421 1 1.76204 12.4516 3.59288 -7.51552 -1.94712 3.76952 1 1
422 1 0.841553 11.5952 4.46583 -5.38006 -0.823 1.53281 1 1
423 1 2.68749 11.6129 6.28706 5.7701 1.02638 0.312707 1 1
424 1 0.900533 13.3839 6.27518 -6.13667 7.32819 0.943456 1 1
425 1 2.66868 13.3651 4.50725 -4.36666 7.01842 -0.924975 1 1
426 1 -0.0457022 12.5196 5.37986 2.95162 2.0777 -2.20391 1 1
427 1 5.30294 10.6829 5.39694 5.45456 -4.04613 -8.93747 1 1
428 1 3.58787 14.2385 3.59648 -3.32625 -2.50889 0.112415 1 1
429 1 3.54371 12.4675 5.42002 4.10954 6.79693 -7.89898 1 1
430 1 5.36994 12.4919 3.59064 -6.30501 5.98732 -0.479984 1 1
431 1 4.41588 11.5542 4.51305 -9.93922 -6.24125 3.24623 1 1
432 1 6.24919 13.358 4.5274 1.43917 4.78576 -3.66253 1 1
433 1 7.12264 14.2434 3.62439 6.92665 -2.27177 8.25128 1 1
434 1 6.19736 11.5844 6.31553 -5.45318 -1.03933 -2.02071 1 1
435 1 7.11443 10.6945 3.58649 3.58926 2.97454 -5.65283 1 1
436 1 7.08234 12.4885 5.43315 4.43713 4.13126 3.26137 1 1
437 1 8.88805 10.6949 5.35494 1.19595 -6.4179 -5.43749 1 1
438 1 8.92172 12.4142 3.57086 -2.33835 6.25268 3.56927 1 1
439 1 7.99548 11.5818 4.46274 -7.99999 7.03203 5.46474 1 1
440 1 9.78771 11.6011 6.26804 -2.47926 1.78937 -1.95173 1 1
441 1 8.02683 13.3571 6.27672 6.84152 -1.26574 -9.6947 1 1
442 1 9.83082 13.3549 4.50154 0.271336 -11.1799 -1.81055 1 1
443 1 10.6801 14.2114 3.60991 0.587907 0.353812 -0.825006 1 1
444 1 12.4399 10.7001 5.42548 8.94497 6.00724 3.0686 1 1
445 1 10.7004 12.4525 5.36216 -0.56509 -1.53192 0.0199116 1 1
446 1 12.4537 12.4665 3.61542 -5.86788 5.00085 -3.54585 1 1
447 1 11.6016 11.5484 4.51252 -1.73161 -1.85669 5.43064 1 1
448 1 13.3364 11.5969 6.3131 2.11533 0.823753 4.64186 1 1
449 1 11.5365 13.4105 6.27966 -4.74901 1.59675 6.06462 1 1
450 1 13.3486 13.3867 4.49588 1.89634 8.02903 -3.65223 1 1
451 1 14.2344 10.6664 3.59936 5.3279 -7.51333 2.80431 1 1
452 1 14.2082 12.5024 5.41156 1.14015 -1.91178 2.02469 1 1
453 1 15.9932 12.5144 3.54854 3.3586 -8.77143 -5.06049 1 1
454 1 15.0803 11.6225 4.49305 2.2638 -5.46671 -8.50921 1 1
455 1 16.8742 11.576 6.29144 -3.40402 -8.3807 2.26039 1 1
456 1 16.8612 13.405 4.47446 -0.562986 5.27618 3.92489 1 1
457 1 17.7946 12.495 5.37034 -1.08479 -2.76667 -1.31962 1 1
458 1 15.1001 13.3812 6.30837 5.24957 3.27509 8.38895 1 1
459 1 17.7947 10.7281 3.62445 8.45321 -0.165095 -5.63942 1 1
460 1 19.5845 12.4758 3.61112 -2.73984 -7.74499 4.77209 1 1
461 1 18.7097 11.6112 4.5128 5.14138 -6.38481 6.39205 1 1
462 1 18.6931 13.4057 6.24769 -4.2315 -1.20235 1.97402 1 1
463 1 20.5428 13.3961 4.42562 -6.25461 -4.96429 -1.55317 1 1
464 1 20.512 11.6281 6.26847 3.81036 2.53489 -1.52847 1 1
465 1 1.80088 14.2895 5.38751 -1.46597 -4.19347 1.64341 1 1
466 1 1.77564 16.0806 3.58699 0.19436 -1.96926 3.04988 1 1
467 1 0.88018 15.1321 4.47651 4.98467 -9.14058 4.10068 1 1
468 1 2.67982 15.1753 6.31794 -5.0843 -0.430229 -6.58003 1 1
469 1 2.70255 16.9445 4.45624 -0.794538 -0.1386 4.66125 1 1
470 1 -0.0277012 16.0369 5.39151 -3.33932 0.695738 4.63102 1 1
471 1 0.0132293 14.2513 3.52226 -1.25223 -4.95201 3.27599 1 1
472 1 1.76905 17.8198 5.41365 -3.43038 -6.10105 3.88887 1 1
473 1 5.37102 14.2562 5.38966 -8.13704 5.41442 -5.77626 1 1
474 1 3.56898 16.0144 5.3732 1.81167 -8.58279 -2.90928 1 1
475 1 5.38038 16.0709 3.6104 4.08172 7.09309 -2.35214 1 1
476 1 4.49245 15.1602 4.51288 4.52028 6.41748 4.22301 1 1
477 1 4.46491 16.943 6.24939 -5.79506 6.0264 -3.56006 1 1
478 1 6.24353 15.1709 6.2699 8.51589 -2.739 -5.48035 1 1
479 1 6.28423 16.9325 4.47852 3.05387 5.58613 6.32746 1 1
480 1 7.11412 16.0583 5.36549 -8.43342 2.66986 0.7001 1 1
481 1 8.92495 14.2723 5.36336 4.13008 0.0884402 2.86502 1 1
482 1 8.9371 16.0218 3.52518 -7.61923 -5.51068 -2.59495 1 1
483 1 8.02961 15.1219 4.4874 -5.96116 -7.906 -3.47381 1 1
484 1 8.04897 16.949 6.24343 -2.82216 6.72152 6.80665 1 1
485 1 9.8239 15.1682 6.28578 -6.1923 3.89465 1.00681 1 1
486 1 9.81579 16.9171 4.41493 4.32424 -1.28351 -0.657153 1 1
487 1 10.7225 16.0359 5.36788 -2.23465 -3.91858 10.8392 1 1
488 1 8.94456 17.8012 5.35182 -4.22506 1.28701 -4.32468 1 1
489 1 10.6965 17.8006 3.55203 -1.16293 -4.41524 0.357628 1 1
490 1 12.4259 14.2994 5.39649 -0.842696 -6.65431 9.52993 1 1
491 1 12.4402 15.9957 3.54237 1.77535 -8.47316 2.76434 1 1
492 1 11.5701 15.1596 4.46367 -2.73388 -2.59105 0.901322 1 1
493 1 11.5661 16.9553 6.24183 2.32006 -3.73039 2.78841 1 1
494 1 13.3625 16.872 4.45744 -0.728375 -0.652906 -6.89553 1 1
495 1 13.3485 15.1389 6.27048 1.36494 -4.16352 -5.38524 1 1
496 1 12.4553 17.807 5.33543 4.25879 2.29611 -7.01654 1 1
497 1 14.2361 14.2768 3.57237 5.80956 6.14352 -6.15243 1 1
498 1 16.0057 14.266 5.3938 2.28296 -8.87844 6.95337 1 1
499 1 17.8102 14.2549 3.64965 0.931577 -6.13723 0.763946 1 1
500 1 14.2495 15.9833 5.35047 7.93401 -4.1224 5.33328 1 1
501 1 14.2747 17.7932 3.58392 7.41303 3.34008 0.358832 1 1
502 1 16.0079 16.0323 3.57116 4.9259 -0.539472 3.33539 1 1
503 1 15.111 15.1129 4.43046 -1.44742 -3.13908 -3.95242 1 1
504 1 16.9214 16.9316 4.44898 3.33682 3.16865 -6.56417 1 1
505 1 16.8552 15.1763 6.24231 -4.78535 1.57082 1.79098 1 1
506 1 17.7788 16.0262 5.37507 1.88988 -8.84903 -1.27575 1 1
507 1 19.6012 14.3282 5.39321 3.60975 -3.33476 6.44125 1 1
508 1 19.6308 16.0496 3.58417 5.5261 -3.06299 -1.7733 1 1
509 1 18.7465 15.1871 4.49803 0.756539 -4.86783 -5.71622 1 1
510 1 20.5208 16.9558 4.40881 -5.35077 -2.44244 1.05317 1 1
511 1 19.5981 17.8044 5.33915 -3.66329 -1.74868 6.34647 1 1
512 1 20.4876 15.168 6.26558 -5.85306 -1.09734 -4.21274 1 1
513 1 1.76913 19.6311 3.57718 1.7867 3.76461 12.2441 1 1
514 1 0.884623 18.7396 4.51758 -0.787645 3.38833 -5.72538 1 1
515 1 0.920706 20.5148 6.27813 -3.94576 -3.69305 -2.66649 1 1
516 1 2.67243 20.4971 4.4502 -0.368102 2.63072 0.62227 1 1
517 1 0.0221342 17.8572 3.60216 -7.48603 1.96582 6.86267 1 1
518 1 21.4085 19.5999 5.41684 9.58843 6.95052 1.40463 1 1
519 1 2.67787 18.7225 6.28292 -7.02586 -0.622952 2.46546 1 1
520 1 5.37628 17.8645 5.38892 -1.93995 -4.2034 8.79738 1 1
521 1 3.53713 17.8227 3.57139 1.51779 -0.689303 7.60698 1 1
522 1 3.59426 19.6105 5.33961 7.89427 1.4843 -1.6178 1 1
523 1 5.30297 19.6212 3.5655 -0.677585 -7.60688 0.227642 1 1
524 1 4.44349 18.6963 4.45439 2.44511 -1.50438 7.50167 1 1
525 1 4.43467 20.4822 6.2247 -1.51192 11.356 -4.19878 1 1
526 1 6.25753 18.7585 6.22087 -1.34635 0.786319 -1.6149 1 1
527 1 6.26512 20.5264 4.41615 -1.59557 7.76173 -4.94045 1 1
528 1 7.11793 17.8482 3.57001 -4.02046 -0.0985812 0.235547 1 1
529 1 7.17557 19.636 5.28432 -7.16037 4.51449 0.265697 1 1
530 1 8.94421 0.0260904 5.33823 0.976097 -6.43682 -3.024 1 1
531 1 8.92693 19.6192 3.58008 3.74011 -3.29312 -5.15262 1 1
532 1 8.07428 18.7105 4.47758 -1.81888 1.94164 3.6349 1 1
533 1 8.00592 20.5074 6.22627 3.82856 -6.30429 -0.848129 1 1
534 1 9.84406 18.6916 6.26177 6.6126 -10.4891 -2.54844 1 1
535 1 9.83617 20.5108 4.48483 -3.38237 1.29358 5.98712 1 1
536 1 10.698 19.6171 5.34677 5.74631 1.00527 -5.71281 1 1
537 1 10.734 -0.0307004 3.55452 -9.16603 -2.2928 6.18462 1 1
538 1 12.5188 19.5524 3.57172 -2.3415 0.198194 3.84063 1 1
539 1 11.5958 18.7001 4.43541 -4.74382 -5.26164 -1.78296 1 1
540 1 13.3626 18.6881 6.28009 -1.97656 -4.86365 -3.52746 1 1
541 1 13.3796 20.4775 4.4451 -3.09525 0.0432584 -3.44805 1 1
542 1 16.0631 17.8386 5.35142 5.70111 -0.541231 0.253968 1 1
543 1 14.3054 21.4077 3.57149 11.1275 -2.36393 -5.4577 1 1
544 1 14.2788 19.6399 5.40826 -1.01156 -2.83001 -5.12215 1 1
545 1 16.0994 19.5745 3.59632 0.102684 -1.66877 5.3011 1 1
546 1 15.1491 18.7098 4.46435 8.47241 7.92282 -3.70502 1 1
547 1 16.9394 18.6804 6.24107 -0.837707 0.0594866 -6.51835 1 1
548 1 16.9533 20.4842 4.47564 -1.89437 -5.69985 3.65283 1 1
549 1 17.8499 19.5867 5.37844 -6.37944 1.68744 3.74052 1 1
550 1 17.8331 17.8347 3.57101 -3.29199 1.8248 0.150532 1 1
551 1 19.5783 19.6285 3.59221 -0.775728 -1.79798 3.61328 1 1
552 1 18.7003 18.72 4.46611 2.51852 -3.03558 -2.12152 1 1
553 1 18.7176 20.4567 6.26428 9.17568 3.29985 -0.272259 1 1
554 1 20.4719 18.6874 6.2923 6.91243 5.25042 -0.248497 1 1
555 1 20.5032 20.5068 4.48831 9.60059 -3.60727 0.973196 1 1
556 1 2.71318 0.879532 6.26432 3.15231 -3.55901 -0.782588 1 1