ITEM: TIMESTEP
1700
ITEM: NUMBER OF ATOMS
2952
ITEM: BOX BOUNDS pp pp mm
0.0000000000000000e+00 2.1394294200000001e+01
0.0000000000000000e+00 2.1394294200000001e+01
-4.4571446250000002e-01 5.3485735500000004e+01
ITEM: ATOMS id type x y z vx vy vz v_is_diamond c_structure_type
1 1 0 0 0 0 0 0 1 3
2 1 1.78286 1.78286 0 0 0 0 1 3
3 1 0.891429 0.891429 0.891429 0 0 0 1 2
4 1 0.906308 2.65726 2.64191 3.95824 -1.76099 -0.556667 1 1
5 1 2.67429 0.874024 2.65302 3.41946 7.68432 -1.47435 1 1
6 1 2.67429 2.67429 0.891429 0 0 0 1 2
7 1 21.3918 1.76804 1.77878 6.14025 9.23068 -0.808109 1 1
8 1 1.76295 21.3541 1.81019 3.97548 -0.741306 -2.46462 1 1
9 1 1.7805 3.56537 1.78269 -1.71503 7.96437 -2.40135 1 1
10 1 3.57015 1.7756 1.78403 -1.86207 -0.424114 0.175333 1 1
11 1 3.56572 0 0 0 0 0 1 3
12 1 5.34857 1.78286 0 0 0 0 1 3
13 1 4.45714 0.891429 0.891429 0 0 0 1 2
14 1 4.46553 2.66545 2.68953 -0.757137 7.97244 -6.97075 1 1
15 1 6.21427 0.913884 2.67518 0.858662 -2.17619 -0.926592 1 1
16 1 6.24 2.67429 0.891429 0 0 0 1 2
17 1 7.13496 1.77813 1.79423 -3.29087 1.41847 1.98004 1 1
18 1 7.13143 0 0 0 0 0 1 3
19 1 8.02286 0.891429 0.891429 0 0 0 1 2
20 1 8.01099 2.67132 2.71976 4.42238 -3.45604 6.71869 1 1
21 1 8.91429 1.78286 0 0 0 0 1 3
22 1 9.80249 0.907795 2.64693 -2.87828 -2.66148 -2.8949 1 1
23 1 9.80572 2.67429 0.891429 0 0 0 1 2
24 1 8.88956 21.3819 1.79534 -1.48967 6.90875 -15.0579 1 1
25 1 10.6867 1.77741 1.74551 1.99517 -1.03314 -1.61144 1 1
26 1 10.6971 0 0 0 0 0 1 3
27 1 12.48 1.78286 0 0 0 0 1 3
28 1 11.5886 0.891429 0.891429 0 0 0 1 2
29 1 11.6385 2.65867 2.62843 -0.559136 1.05795 -2.80215 1 1
30 1 13.3766 0.876186 2.71259 -7.35645 -3.70516 2.78167 1 1
31 1 13.3714 2.67429 0.891429 0 0 0 1 2
32 1 14.2589 1.77935 1.77381 -1.77282 6.69541 1.54201 1 1
33 1 14.2629 0 0 0 0 0 1 3
34 1 16.0457 1.78286 0 0 0 0 1 3
35 1 15.1543 0.891429 0.891429 0 0 0 1 2
36 1 15.1585 2.65209 2.66299 6.45497 3.81309 -2.93345 1 1
37 1 16.9151 0.856816 2.66526 9.51949 3.38356 -4.65344 1 1
38 1 16.9371 2.67429 0.891429 0 0 0 1 2
39 1 16.0088 -0.00784126 1.7668 -1.28655 -4.83751 2.54315 1 1
40 1 17.8203 1.78234 1.76457 0.298901 -3.38107 0.866677 1 1
41 1 17.8286 0 0 0 0 0 1 3
42 1 19.6114 1.78286 0 0 0 0 1 3
43 1 18.72 0.891429 0.891429 0 0 0 1 2
44 1 18.7385 2.64027 2.63335 1.22054 7.7763 -2.39609 1 1
45 1 20.4984 0.896649 2.68806 1.90018 6.26155 -0.0678617 1 1
46 1 20.5029 2.67429 0.891429 0 0 0 1 2
47 1 0 3.56572 0 0 0 0 1 3
48 1 1.78286 5.34857 0 0 0 0 1 3
49 1 0.891429 4.45714 0.891429 0 0 0 1 2
50 1 0.884889 6.26651 2.65412 -2.17213 -4.3529 0.064189 1 1
51 1 2.67851 4.41883 2.65487 -4.01756 -1.17299 8.62633 1 1
52 1 2.67429 6.24 0.891429 0 0 0 1 2
53 1 3.57429 5.32895 1.75113 -0.460592 -1.79163 -1.84844 1 1
54 1 5.35333 3.56995 1.78398 3.04581 -0.563617 -5.83318 1 1
55 1 3.56572 3.56572 0 0 0 0 1 3
56 1 5.34857 5.34857 0 0 0 0 1 3
57 1 4.45714 4.45714 0.891429 0 0 0 1 2
58 1 4.52073 6.21123 2.66618 4.7613 -6.65009 0.97033 1 1
59 1 6.23953 4.46628 2.678 4.65695 0.0572863 -3.46147 1 1
60 1 6.24 6.24 0.891429 0 0 0 1 2
61 1 5.36426 7.14786 1.77994 -6.60415 -6.74113 -8.21567 1 1
62 1 7.11406 5.31407 1.82288 0.438834 -0.50093 -5.68269 1 1
63 1 7.13143 3.56572 0 0 0 0 1 3
64 1 8.9008 3.55956 1.78988 -7.91876 1.99259 -5.08992 1 1
65 1 8.02286 4.45714 0.891429 0 0 0 1 2
66 1 8.01544 6.27417 2.64688 8.52755 -0.604784 -1.3477 1 1
67 1 8.91429 5.34857 0 0 0 0 1 3
68 1 9.83036 4.45975 2.69473 4.55292 4.70218 3.65294 1 1
69 1 9.80572 6.24 0.891429 0 0 0 1 2
70 1 10.6884 5.34593 1.79272 3.55278 1.98602 3.75386 1 1
71 1 12.485 3.58031 1.78384 -2.00461 -0.752175 -0.0224947 1 1
72 1 10.6971 3.56572 0 0 0 0 1 3
73 1 12.48 5.34857 0 0 0 0 1 3
74 1 11.5886 4.45714 0.891429 0 0 0 1 2
75 1 11.6118 6.22174 2.68653 -2.33823 2.04572 3.52578 1 1
76 1 13.4301 4.42885 2.70266 3.14442 4.09574 4.12693 1 1
77 1 13.3714 6.24 0.891429 0 0 0 1 2
78 1 14.2885 5.34662 1.78474 1.84986 -3.78095 0.510134 1 1
79 1 16.0434 3.56927 1.81575 -3.62929 3.43296 4.10728 1 1
80 1 14.2629 3.56572 0 0 0 0 1 3
81 1 16.0457 5.34857 0 0 0 0 1 3
82 1 15.1543 4.45714 0.891429 0 0 0 1 2
83 1 15.1589 6.2457 2.60673 3.87131 -2.04657 0.493812 1 1
84 1 16.9855 4.43199 2.67634 4.09152 -3.73319 2.91991 1 1
85 1 16.9371 6.24 0.891429 0 0 0 1 2
86 1 17.8274 5.35731 1.76812 -1.27874 10.3258 1.50931 1 1
87 1 19.6203 3.55438 1.79068 3.28911 6.9651 -2.51615 1 1
88 1 21.4 5.33676 1.79568 4.4734 0.673008 -1.82723 1 1
89 1 17.8286 3.56572 0 0 0 0 1 3
90 1 19.6114 5.34857 0 0 0 0 1 3
91 1 18.72 4.45714 0.891429 0 0 0 1 2
92 1 18.7063 6.26188 2.65624 0.206993 -1.76657 4.73951 1 1
93 1 20.4601 4.47519 2.64993 0.654387 -5.48567 -3.42106 1 1
94 1 20.5029 6.24 0.891429 0 0 0 1 2
95 1 19.6361 7.1371 1.77093 -0.921941 10.0684 3.61074 1 1
96 1 1.73924 7.15224 1.79403 -5.69096 2.35954 -1.66015 1 1
97 1 0 7.13143 0 0 0 0 1 3
98 1 0.891429 8.02286 0.891429 0 0 0 1 2
99 1 2.66935 8.01333 2.65644 0.289092 0.798043 -3.04135 1 1
100 1 1.78286 8.91429 0 0 0 0 1 3
101 1 0.859323 9.81343 2.65353 3.69533 -4.89313 8.22353 1 1
102 1 2.67429 9.80572 0.891429 0 0 0 1 2
103 1 1.77393 10.7013 1.76687 3.63007 3.04207 5.50511 1 1
104 1 3.56774 8.89025 1.76856 0.211278 2.46046 0.454416 1 1
105 1 3.56572 7.13143 0 0 0 0 1 3
106 1 4.45714 8.02286 0.891429 0 0 0 1 2
107 1 6.25361 8.05269 2.62741 -2.89061 3.85553 4.27229 1 1
108 1 5.34857 8.91429 0 0 0 0 1 3
109 1 4.46312 9.82827 2.67506 -0.2532 7.17527 4.41647 1 1
110 1 6.24 9.80572 0.891429 0 0 0 1 2
111 1 7.16972 8.9089 1.76131 2.47808 -3.17097 -3.11176 1 1
112 1 8.90955 7.13874 1.72364 2.65797 -5.31552 -3.52555 1 1
113 1 7.13143 7.13143 0 0 0 0 1 3
114 1 8.02286 8.02286 0.891429 0 0 0 1 2
115 1 9.83835 8.0132 2.61745 5.91437 -0.470168 6.23005 1 1
116 1 8.05393 9.77319 2.64281 5.57613 0.41029 6.16262 1 1
117 1 8.91429 8.91429 0 0 0 0 1 3
118 1 9.80572 9.80572 0.891429 0 0 0 1 2
119 1 10.7039 8.93222 1.76345 -0.034856 -6.10718 -10.161 1 1
120 1 12.4869 7.1339 1.76396 -1.33973 4.63019 -0.829318 1 1
121 1 10.6971 7.13143 0 0 0 0 1 3
122 1 11.5886 8.02286 0.891429 0 0 0 1 2
123 1 13.3787 8.00874 2.64797 8.82363 5.17661 2.82514 1 1
124 1 12.48 8.91429 0 0 0 0 1 3
125 1 11.623 9.76965 2.66067 -1.23815 8.27554 4.36033 1 1
126 1 13.3714 9.80572 0.891429 0 0 0 1 2
127 1 12.4978 10.7168 1.75822 8.58449 2.91716 -1.93211 1 1
128 1 16.0929 7.14494 1.75342 2.6538 -2.40875 -2.49193 1 1
129 1 14.3015 8.9293 1.73619 0.105713 -7.76438 -8.98235 1 1
130 1 14.2629 7.13143 0 0 0 0 1 3
131 1 15.1543 8.02286 0.891429 0 0 0 1 2
132 1 16.9178 8.07566 2.63657 8.03197 -2.62811 1.18982 1 1
133 1 16.0457 8.91429 0 0 0 0 1 3
134 1 15.1701 9.83718 2.61195 -0.867517 -0.961598 -3.01549 1 1
135 1 16.9371 9.80572 0.891429 0 0 0 1 2
136 1 16.0675 10.7233 1.78716 -2.91646 0.354782 3.7423 1 1
137 1 17.8147 8.90578 1.76551 -0.911211 0.514091 -3.16281 1 1
138 1 21.3922 8.91869 1.76283 10.2029 3.5553 1.10012 1 1
139 1 17.8286 7.13143 0 0 0 0 1 3
140 1 18.72 8.02286 0.891429 0 0 0 1 2
141 1 20.541 8.01984 2.67907 -1.20512 1.17763 6.25623 1 1
142 1 19.6114 8.91429 0 0 0 0 1 3
143 1 18.6876 9.82082 2.61878 -5.5872 5.77691 0.324116 1 1
144 1 20.5029 9.80572 0.891429 0 0 0 1 2
145 1 0 10.6971 0 0 0 0 1 3
146 1 1.78286 12.48 0 0 0 0 1 3
147 1 0.891429 11.5886 0.891429 0 0 0 1 2
148 1 2.68578 11.617 2.66507 1.37224 7.2524 -2.24863 1 1
149 1 0.916073 13.3714 2.64902 0.268893 6.22358 6.77919 1 1
150 1 2.67429 13.3714 0.891429 0 0 0 1 2
151 1 0.0393323 12.4594 1.75087 3.88845 -3.56284 -6.23155 1 1
152 1 5.31829 10.705 1.79613 -4.34389 3.88626 -0.66991 1 1
153 1 3.57294 12.5048 1.79818 2.11737 1.82688 2.45285 1 1
154 1 3.56572 10.6971 0 0 0 0 1 3
155 1 5.34857 12.48 0 0 0 0 1 3
156 1 4.45714 11.5886 0.891429 0 0 0 1 2
157 1 6.18299 11.5862 2.71081 -4.46247 -7.21232 -3.39019 1 1
158 1 4.45275 13.393 2.71741 -2.04443 -1.62027 -8.62234 1 1
159 1 6.24 13.3714 0.891429 0 0 0 1 2
160 1 5.32008 14.2976 1.80408 -4.2281 0.932944 7.94968 1 1
161 1 8.89188 10.699 1.771 0.900948 -2.24316 -6.58236 1 1
162 1 7.10663 12.4907 1.81296 -2.08438 3.2859 -2.44601 1 1
163 1 7.13143 10.6971 0 0 0 0 1 3
164 1 8.02286 11.5886 0.891429 0 0 0 1 2
165 1 8.91429 12.48 0 0 0 0 1 3
166 1 9.74306 11.5835 2.66863 4.4762 0.321411 1.37283 1 1
167 1 8.01875 13.3731 2.67676 6.45001 0.811851 8.84494 1 1
168 1 9.80572 13.3714 0.891429 0 0 0 1 2
169 1 10.6901 12.4898 1.79949 -4.14694 2.93075 9.7939 1 1
170 1 10.6971 10.6971 0 0 0 0 1 3
171 1 12.48 12.48 0 0 0 0 1 3
172 1 11.5886 11.5886 0.891429 0 0 0 1 2
173 1 13.3468 11.5925 2.6465 5.27343 1.87678 1.05274 1 1
174 1 11.5493 13.3764 2.66874 8.21361 1.38995 -7.23295 1 1
175 1 13.3714 13.3714 0.891429 0 0 0 1 2
176 1 12.4867 14.2452 1.81484 5.38358 0.634163 -4.03491 1 1
177 1 14.2555 12.4722 1.75133 3.71908 -7.34707 -6.37656 1 1
178 1 14.2629 10.6971 0 0 0 0 1 3
179 1 16.0457 12.48 0 0 0 0 1 3
180 1 15.1543 11.5886 0.891429 0 0 0 1 2
181 1 16.9608 11.597 2.6507 1.03837 0.371048 2.2856 1 1
182 1 15.1578 13.3772 2.63073 7.36599 -6.97159 2.46833 1 1
183 1 16.9371 13.3714 0.891429 0 0 0 1 2
184 1 17.8139 12.5173 1.76952 -7.81126 3.7089 0.240759 1 1
185 1 19.5995 10.6956 1.73455 1.30022 -0.251431 3.10192 1 1
186 1 17.8286 10.6971 0 0 0 0 1 3
187 1 19.6114 12.48 0 0 0 0 1 3
188 1 18.72 11.5886 0.891429 0 0 0 1 2
189 1 20.4767 11.6443 2.63033 -9.24816 -8.60629 6.25242 1 1
190 1 18.6983 13.3702 2.6385 -6.0958 8.81593 5.23035 1 1
191 1 20.5029 13.3714 0.891429 0 0 0 1 2
192 1 19.6288 14.2611 1.7774 -2.6262 1.23957 -5.06161 1 1
193 1 1.79666 14.2533 1.78705 6.95377 -1.43344 4.43794 1 1
194 1 0 14.2629 0 0 0 0 1 3
195 1 1.78286 16.0457 0 0 0 0 1 3
196 1 0.891429 15.1543 0.891429 0 0 0 1 2
197 1 0.875141 16.9304 2.69239 -5.45261 -4.56546 4.05365 1 1
198 1 2.6406 15.1583 2.65702 -0.322457 -3.49671 4.16641 1 1
199 1 2.67429 16.9371 0.891429 0 0 0 1 2
200 1 21.3625 16.0333 1.76464 2.89938 -11.2697 -6.01504 1 1
201 1 3.52999 16.0619 1.75554 -1.46716 6.88045 5.96251 1 1
202 1 3.56572 14.2629 0 0 0 0 1 3
203 1 5.34857 16.0457 0 0 0 0 1 3
204 1 4.45714 15.1543 0.891429 0 0 0 1 2
205 1 4.47349 16.9052 2.63438 1.56645 3.33997 2.75725 1 1
206 1 6.21822 15.1468 2.71265 0.592136 2.58421 5.66359 1 1
207 1 6.24 16.9371 0.891429 0 0 0 1 2
208 1 7.14156 16.0147 1.80691 -2.94097 -0.050512 -0.331476 1 1
209 1 5.35867 17.8284 1.77806 3.00398 4.85412 4.53587 1 1
210 1 8.88904 14.2657 1.79379 -2.65151 -1.21329 -1.96329 1 1
211 1 7.13143 14.2629 0 0 0 0 1 3
212 1 8.02286 15.1543 0.891429 0 0 0 1 2
213 1 8.02824 16.8707 2.64817 -3.459 -5.0811 6.56578 1 1
214 1 8.91429 16.0457 0 0 0 0 1 3
215 1 9.80625 15.1526 2.67507 3.39401 -0.089358 -5.06079 1 1
216 1 9.80572 16.9371 0.891429 0 0 0 1 2
217 1 8.9181 17.8171 1.77926 7.22193 4.04204 -1.16855 1 1
218 1 10.6888 16.0615 1.78281 7.14047 0.11383 -3.83745 1 1
219 1 10.6971 14.2629 0 0 0 0 1 3
220 1 12.48 16.0457 0 0 0 0 1 3
221 1 11.5886 15.1543 0.891429 0 0 0 1 2
222 1 11.6033 16.9243 2.67128 7.20892 -3.8072 -4.89058 1 1
223 1 13.368 15.1736 2.69817 1.23518 -2.34482 -0.258391 1 1
224 1 13.3714 16.9371 0.891429 0 0 0 1 2
225 1 12.4349 17.8223 1.7692 -1.46091 3.51359 6.48015 1 1
226 1 16.0312 14.2853 1.76019 -0.325425 13.1702 -0.474007 1 1
227 1 14.2642 16.0093 1.75345 5.13434 -2.35199 -4.23208 1 1
228 1 14.2629 14.2629 0 0 0 0 1 3
229 1 16.0457 16.0457 0 0 0 0 1 3
230 1 15.1543 15.1543 0.891429 0 0 0 1 2
231 1 15.1354 16.9124 2.65586 -5.06761 -0.400577 -7.956 1 1
232 1 16.9556 15.1775 2.6305 0.746577 -3.8299 -1.32416 1 1
233 1 16.9371 16.9371 0.891429 0 0 0 1 2
234 1 17.8629 16.0455 1.78721 -1.20994 8.37246 7.89012 1 1
235 1 17.8286 14.2629 0 0 0 0 1 3
236 1 19.6114 16.0457 0 0 0 0 1 3
237 1 18.72 15.1543 0.891429 0 0 0 1 2
238 1 18.7532 16.9408 2.65289 -8.52488 4.26236 5.52927 1 1
239 1 20.4872 15.1606 2.68155 2.17277 6.5244 1.3245 1 1
240 1 20.5029 16.9371 0.891429 0 0 0 1 2
241 1 19.6474 17.8601 1.76027 6.53731 1.86865 -4.70199 1 1
242 1 1.79475 17.8264 1.7807 0.178918 -3.21395 1.6681 1 1
243 1 0 17.8286 0 0 0 0 1 3
244 1 1.78286 19.6114 0 0 0 0 1 3
245 1 0.891429 18.72 0.891429 0 0 0 1 2
246 1 0.870578 20.4939 2.68623 4.13921 3.8675 -0.116008 1 1
247 1 2.65888 18.7514 2.68574 0.576878 -1.81119 -3.54137 1 1
248 1 2.67429 20.5029 0.891429 0 0 0 1 2
249 1 3.60841 19.6386 1.77281 1.21757 4.66041 3.31258 1 1
250 1 21.3372 19.6043 1.81454 -3.13322 -0.234912 4.22906 1 1
251 1 5.38496 21.3684 1.76662 -9.07546 4.93162 -1.5219 1 1
252 1 3.56572 17.8286 0 0 0 0 1 3
253 1 5.34857 19.6114 0 0 0 0 1 3
254 1 4.45714 18.72 0.891429 0 0 0 1 2
255 1 4.42869 20.487 2.68264 -1.96646 -0.0683265 2.04597 1 1
256 1 6.24177 18.7345 2.65503 1.65335 8.45993 -3.78179 1 1
257 1 6.24 20.5029 0.891429 0 0 0 1 2
258 1 7.17004 19.6188 1.78059 -2.85259 5.49456 -7.47427 1 1
259 1 7.13143 17.8286 0 0 0 0 1 3
260 1 8.02286 18.72 0.891429 0 0 0 1 2
261 1 8.01863 20.4551 2.65117 1.22108 5.261 -2.24816 1 1
262 1 8.91429 19.6114 0 0 0 0 1 3
263 1 9.78097 18.6807 2.68491 3.64878 -2.89453 -0.0161923 1 1
264 1 9.80572 20.5029 0.891429 0 0 0 1 2
265 1 10.6751 19.5568 1.80776 -5.6715 -2.53271 -2.96075 1 1
266 1 12.4586 -0.0137401 1.77077 10.7919 -3.1624 3.98967 1 1
267 1 10.6971 17.8286 0 0 0 0 1 3
268 1 12.48 19.6114 0 0 0 0 1 3
269 1 11.5886 18.72 0.891429 0 0 0 1 2
270 1 11.5597 20.5123 2.69899 7.99384 -2.8689 -4.44694 1 1
271 1 13.3533 18.6896 2.63542 6.94297 -1.28616 12.8144 1 1
272 1 13.3714 20.5029 0.891429 0 0 0 1 2
273 1 14.2352 19.6288 1.77181 -2.45974 -1.69592 -2.31906 1 1
274 1 16.0578 17.8321 1.7815 1.08462 -3.31551 -0.0180072 1 1
275 1 14.2629 17.8286 0 0 0 0 1 3
276 1 16.0457 19.6114 0 0 0 0 1 3
277 1 15.1543 18.72 0.891429 0 0 0 1 2
278 1 15.1322 20.4751 2.69825 -0.321062 -0.845196 -5.05514 1 1
279 1 16.9173 18.7064 2.66897 2.16124 2.00509 3.00175 1 1
280 1 16.9371 20.5029 0.891429 0 0 0 1 2
281 1 19.5918 21.3899 1.82381 -7.42938 6.1198 4.01036 1 1
282 1 17.8584 19.5711 1.78384 1.39158 1.67941 5.49215 1 1
283 1 17.8286 17.8286 0 0 0 0 1 3
284 1 19.6114 19.6114 0 0 0 0 1 3
285 1 18.72 18.72 0.891429 0 0 0 1 2
286 1 18.7126 20.4869 2.63899 -3.8484 7.4135 -0.122344 1 1
287 1 20.4769 18.7155 2.68233 -4.77983 -8.6691 3.43588 1 1
288 1 20.5029 20.5029 0.891429 0 0 0 1 2
289 1 1.77348 1.81725 3.57501 -2.80009 3.53877 3.56967 1 1
290 1 0.923531 0.856496 4.40504 1.39665 -1.78666 9.81508 1 1
291 1 2.69978 2.65714 4.45564 1.41144 -6.16097 3.22282 1 1
292 1 1.80284 -0.0207275 5.35247 3.76229 -2.59721 -6.08878 1 1
293 1 1.8159 3.56091 5.31486 4.10529 -5.10172 -6.12526 1 1
294 1 0.0722294 1.74812 5.30796 1.00284 -3.77946 -1.26626 1 1
295 1 0.0116269 21.3825 3.56486 -4.69923 1.00613 0.996333 1 1
296 1 3.60823 1.77094 5.35621 -0.585588 6.55441 1.2735 1 1
297 1 5.34071 1.78343 3.57594 6.6084 1.01613 8.3607 1 1
298 1 4.49147 0.907069 4.49911 0.0437249 4.44924 8.57249 1 1
299 1 6.24676 0.882418 6.23626 0.627305 -5.38987 4.64062 1 1
300 1 6.21409 2.67205 4.45934 2.02992 1.63251 1.21125 1 1
301 1 3.56531 0.0141092 3.5537 -1.94437 -3.40164 0.645561 1 1
302 1 7.12385 21.3546 3.53532 -3.29529 -2.54756 6.54348 1 1
303 1 5.33079 -0.00168829 5.38927 -5.61178 -3.25594 -6.33171 1 1
304 1 7.13108 3.56537 3.57826 6.77547 7.79973 6.11637 1 1
305 1 7.05352 1.75326 5.30701 12.0292 0.455232 -3.62847 1 1
306 1 8.88229 1.76923 3.5194 0.536372 -0.265483 0.407518 1 1
307 1 8.00464 0.855996 4.38826 -1.11966 -6.3635 -7.17095 1 1
308 1 7.96611 2.73102 6.1921 5.74888 -6.01081 -2.49593 1 1
309 1 9.78459 0.851778 6.19814 -6.31062 7.0782 4.86026 1 1
310 1 9.77858 2.6131 4.48439 0.702122 -4.7192 5.25243 1 1
311 1 10.6731 1.7392 5.36923 0.270315 -3.96983 -4.65639 1 1
312 1 12.482 1.78833 3.60117 1.58871 1.66423 -0.909109 1 1
313 1 11.5802 0.894972 4.46497 1.02465 -6.29814 -5.95956 1 1
314 1 11.555 2.69001 6.25509 12.002 7.4383 -6.67447 1 1
315 1 13.3917 2.67729 4.47156 6.02799 -7.35198 -2.28235 1 1
316 1 13.3978 0.866012 6.26561 8.94654 -3.14008 -7.32736 1 1
317 1 12.4607 3.58466 5.3529 0.0800438 -2.31036 -12.4958 1 1
318 1 14.2959 1.769 5.34741 -6.00433 5.36447 -10.376 1 1
319 1 12.4893 -0.0317396 5.33118 3.10609 -8.51704 -5.89043 1 1
320 1 14.3206 3.5288 3.60646 -6.74787 -6.98345 5.58064 1 1
321 1 16.0402 1.7804 3.57401 -1.47853 -8.14458 5.47101 1 1
322 1 15.1778 0.886789 4.43424 -1.82607 3.33061 -6.36404 1 1
323 1 15.18 2.65994 6.20129 1.74411 9.04835 5.01871 1 1
324 1 16.9216 2.64157 4.40067 -0.380053 -1.88591 2.59401 1 1
325 1 17.8069 1.76006 5.3164 -4.44144 -0.409835 -9.07504 1 1
326 1 16.0256 21.392 5.31512 -2.19201 -0.160922 -5.89153 1 1
327 1 19.6111 1.75679 3.562 6.45194 3.42944 -10.5824 1 1
328 1 18.7085 0.887472 4.44323 2.60755 -5.82955 -2.24318 1 1
329 1 20.4925 2.62515 4.42183 -0.461982 6.26747 -5.21863 1 1
330 1 17.7688 21.4023 3.53715 -3.14418 -3.56435 -1.30366 1 1
331 1 19.6125 0.0206288 5.32166 -0.633265 -4.8212 5.65606 1 1
332 1 0.00456193 3.54899 3.53298 -7.14326 -15.1573 3.30333 1 1
333 1 1.74824 5.30334 3.51857 4.16239 0.157736 2.03259 1 1
334 1 0.89465 4.43768 4.45861 -10.1746 2.89536 -1.68377 1 1
335 1 2.66908 4.46386 6.25223 -2.96127 9.28026 -4.66568 1 1
336 1 2.68651 6.21409 4.44018 6.63671 -7.65841 1.10597 1 1
337 1 3.59671 3.52626 3.5628 -1.37282 0.798421 2.88231 1 1
338 1 21.4141 5.33091 5.32984 2.84201 -7.43878 -9.35443 1 1
339 1 3.59211 5.34629 5.34597 -1.72494 0.643243 4.19423 1 1
340 1 5.34151 3.56858 5.38785 -12.9701 0.906987 1.0959 1 1
341 1 5.35361 5.36376 3.59483 -5.14855 -5.18681 -2.77934 1 1
342 1 4.4847 4.47859 4.4722 6.87453 -0.393217 -4.87458 1 1
343 1 4.44598 6.24038 6.23888 6.82613 -5.93217 3.17374 1 1
344 1 6.26129 6.25573 4.4455 -2.2026 5.26445 0.761523 1 1
345 1 7.11635 5.38975 5.37509 -4.33393 0.141433 -2.60376 1 1
346 1 5.37914 7.12503 5.32624 1.13085 -4.03268 7.05766 1 1
347 1 6.24769 4.49214 6.29376 -0.16528 -0.232793 4.26825 1 1
348 1 8.87486 3.53694 5.34756 0.875446 -0.44095 -4.3951 1 1
349 1 10.7109 3.53403 3.55997 -7.26632 4.32526 7.77263 1 1
350 1 8.89693 5.35949 3.58906 -4.51978 3.11921 1.21821 1 1
351 1 8.01324 4.42268 4.45973 -0.879722 1.73146 2.67504 1 1
352 1 8.0557 6.24719 6.2466 -2.29276 -3.27694 -1.98863 1 1
353 1 9.81198 4.45584 6.24675 -0.547925 4.9909 1.34145 1 1
354 1 9.81194 6.25795 4.4502 -5.64521 3.19025 -2.5932 1 1
355 1 10.7184 5.34877 5.31916 2.4078 -3.77794 1.4283 1 1
356 1 12.4779 5.37887 3.58575 -4.83168 8.02447 -5.90183 1 1
357 1 11.5974 4.45362 4.42247 4.70678 7.8161 10.0712 1 1
358 1 13.4492 6.26462 4.44697 -0.148891 -7.08263 -0.701493 1 1
359 1 14.3004 5.40316 5.34269 3.28166 1.67245 4.86397 1 1
360 1 16.1068 3.58247 5.29872 -2.91085 -8.92016 3.48616 1 1
361 1 17.8287 3.553 3.53055 5.90848 9.06269 -3.67374 1 1
362 1 16.0703 5.39296 3.53595 -6.95301 -4.0377 -4.75238 1 1
363 1 15.1943 4.50085 4.45785 -1.67852 -0.969798 -9.03197 1 1
364 1 16.9227 6.29493 4.44257 -2.72471 -4.03687 1.01268 1 1
365 1 16.9693 4.49599 6.20885 -3.60624 0.918868 -1.05506 1 1
366 1 16.0256 7.17393 5.32104 -7.24409 2.5953 -7.47479 1 1
367 1 15.1977 6.26862 6.2345 2.0002 -0.62058 -0.880546 1 1
368 1 19.5996 3.55807 5.36131 -2.70509 -3.14227 2.74312 1 1
369 1 17.8405 5.35903 5.32216 -0.832039 0.260993 -4.07859 1 1
370 1 19.5954 5.35415 3.54051 -4.25728 5.71316 -0.768943 1 1
371 1 18.736 4.482 4.39512 0.232823 7.56517 -0.239494 1 1
372 1 20.5387 4.48645 6.25205 6.51043 0.511402 1.35613 1 1
373 1 20.5029 6.21411 4.40592 6.41386 5.8502 1.80641 1 1
374 1 19.6001 7.13227 5.30511 4.34533 3.42186 -5.05127 1 1
375 1 21.3687 7.13475 3.58925 5.90718 9.56987 2.88133 1 1
376 1 1.75343 7.08604 5.32405 3.10492 -3.37031 -9.37498 1 1
377 1 1.7975 8.9474 3.54673 -6.32882 7.27161 -3.30442 1 1
378 1 0.862815 7.99608 4.49364 -3.77861 -0.478369 4.47058 1 1
379 1 2.6575 8.00866 6.26178 -2.50319 -8.2911 -1.88832 1 1
380 1 0.896024 9.76472 6.25089 -4.32011 -3.93234 -4.53891 1 1
381 1 2.66757 9.7615 4.50809 1.97083 1.99956 -0.523318 1 1
382 1 -0.0149589 8.91872 5.32487 -2.29062 1.77126 7.29349 1 1
383 1 1.84052 10.7307 5.37391 -8.90309 2.01013 -11.0289 1 1
384 1 3.59242 7.10205 3.56238 11.6498 2.51782 7.77936 1 1
385 1 7.14855 7.17766 3.51669 -0.777741 8.30245 4.66019 1 1
386 1 3.55035 10.692 3.5258 -1.51379 -1.3658 -0.161917 1 1
387 1 3.59645 8.85783 5.30914 0.41182 -5.86802 1.83227 1 1
388 1 5.3663 8.92216 3.52092 -13.2373 -7.41469 4.3 1 1
389 1 4.4747 7.9641 4.44123 -2.45926 4.30637 -6.58233 1 1
390 1 4.43986 9.76045 6.2349 2.207 -5.07427 1.53325 1 1
391 1 6.24788 9.77909 4.49405 -0.091591 1.29395 3.0912 1 1
392 1 8.90524 7.13217 5.33385 0.248652 2.38481 1.96759 1 1
393 1 7.14469 8.89042 5.36416 -1.32808 -2.51829 -3.62547 1 1
394 1 8.96223 8.89162 3.52429 -6.35856 0.358593 -4.33451 1 1
395 1 8.04195 8.0169 4.43408 2.83648 0.140425 -2.03921 1 1
396 1 9.83991 9.79901 4.44095 8.35184 -0.730848 -8.59463 1 1
397 1 10.7004 8.89185 5.35536 10.2928 -1.36841 -0.8589 1 1
398 1 10.7401 10.6923 3.59017 10.4093 -2.56652 -2.54748 1 1
399 1 9.83115 8.00275 6.22 -4.71425 -0.789846 6.6631 1 1
400 1 12.5178 7.12456 5.34141 4.45303 1.12306 -8.10735 1 1
401 1 10.7397 7.07972 3.54882 -0.441418 5.58317 -1.395 1 1
402 1 12.4774 8.85663 3.53326 0.341346 -3.14155 0.930972 1 1
403 1 11.6275 8.00363 4.44786 -2.13348 -2.65872 2.88022 1 1
404 1 13.4031 9.77952 4.42881 -0.594695 0.818207 3.50869 1 1
405 1 14.2531 7.12263 3.52198 -4.5472 4.64017 5.57675 1 1
406 1 14.2673 8.95234 5.37262 -0.362768 0.600105 -0.508355 1 1
407 1 17.8189 7.18378 3.53222 -5.8452 1.09398 2.39031 1 1
408 1 16.0397 8.92503 3.46447 0.894706 6.69969 -0.12208 1 1
409 1 15.1395 8.03674 4.39023 -3.67604 -6.30599 -4.53411 1 1
410 1 16.928 9.82764 4.43102 1.95094 -0.376434 5.29213 1 1
411 1 16.0182 10.694 5.31402 -9.23148 0.995197 -0.672915 1 1
412 1 16.9206 8.05618 6.25865 11.5694 8.93277 0.334616 1 1
413 1 17.8305 8.97695 5.32611 -7.65615 7.06839 -2.28002 1 1
414 1 19.59 8.95032 3.52249 -4.09967 10.3919 3.40517 1 1
415 1 18.7363 8.03396 4.46055 0.0843775 2.24209 4.03882 1 1
416 1 18.716 9.85159 6.16812 -6.95234 -2.38021 1.55073 1 1
417 1 20.5036 9.80632 4.44756 -6.88884 1.42831 4.77583 1 1
418 1 20.475 8.03331 6.1966 -4.84877 -0.76754 2.77278 1 1
419 1 19.6563 10.7024 5.29722 3.57333 1.99967 2.9047 1 1
420 1 21.3715 10.6573 3.52229 3.79094 0.788152 1.41756 1 1
421 1 1.77919 12.4865 3.60842 5.54088 -0.0428758 10.8552 1 1
422 1 0.912316 11.5715 4.44692 -7.76037 5.81586 -3.93619 1 1
423 1 2.68829 11.5921 6.23297 4.79037 -8.44805 0.481279 1 1
424 1 0.889675 13.3661 6.23209 -3.27715 -9.33053 3.03534 1 1
425 1 2.63411 13.3621 4.49612 1.05491 4.10213 5.00295 1 1
426 1 0.012123 12.5042 5.30853 0.86607 2.18809 3.16238 1 1
427 1 5.32035 10.6514 5.3595 -4.68222 -1.96822 5.33441 1 1
428 1 3.54652 14.3127 3.6041 -0.798863 -0.427604 5.83528 1 1
429 1 3.53115 12.5062 5.35586 3.84957 1.36183 0.212609 1 1
430 1 5.35831 12.4703 3.595 -0.986914 -6.27445 -4.71865 1 1
431 1 4.41954 11.5772 4.46348 1.57443 -7.16267 -6.68681 1 1
432 1 6.24963 13.3334 4.47856 -1.15985 9.76264 3.96146 1 1
433 1 7.11694 14.2651 3.55021 0.64271 0.685885 2.59107 1 1
434 1 6.20123 11.5522 6.25869 1.21515 -2.7918 3.87531 1 1
435 1 7.09304 10.6941 3.59074 -0.141107 0.754923 1.43385 1 1
436 1 7.13644 12.4957 5.34907 -2.20653 3.66941 5.07334 1 1
437 1 8.95944 10.6839 5.35441 -6.19337 0.524307 6.57459 1 1
438 1 8.88386 12.4309 3.55557 4.13396 -16.73 2.84303 1 1
439 1 7.96684 11.5277 4.45004 -1.66583 2.91482 -10.4899 1 1
440 1 9.80836 11.5656 6.23602 2.96429 -3.63921 9.94655 1 1
441 1 8.00502 13.3942 6.25194 12.4387 -2.21625 -6.03562 1 1
442 1 9.7861 13.351 4.43599 3.54165 -7.47195 0.481499 1 1
443 1 10.6557 14.2519 3.56555 3.6976 7.01758 -8.45801 1 1
444 1 12.4697 10.6553 5.30473 6.77255 3.50409 -1.74598 1 1
445 1 10.7032 12.4669 5.30553 -0.535336 3.13618 -5.22046 1 1
446 1 12.4868 12.4623 3.54907 4.20076 7.45497 2.56935 1 1
447 1 11.5983 11.5874 4.41862 -5.97624 -0.194114 3.98767 1 1
448 1 13.3273 11.5846 6.17652 2.01429 -0.444865 -0.660228 1 1
449 1 11.5575 13.3605 6.23775 -6.22185 -0.300063 9.82439 1 1
450 1 13.3702 13.3592 4.40503 9.87576 -5.90849 3.94159 1 1
451 1 14.2915 10.7027 3.5376 -3.78951 -4.25412 -3.37631 1 1
452 1 14.2903 12.4936 5.32365 5.63629 -1.35478 -5.02059 1 1
453 1 16.0845 12.4675 3.56135 7.58116 -3.89817 0.767554 1 1
454 1 15.1926 11.628 4.48335 4.0816 1.38271 1.48558 1 1
455 1 16.9708 11.5908 6.25105 -2.68498 -0.727416 -3.73163 1 1
456 1 16.9699 13.3679 4.40631 2.92695 5.16405 5.03029 1 1
457 1 17.87 12.4822 5.3169 0.450778 0.0843211 0.725159 1 1
458 1 15.1506 13.3907 6.24037 -0.747157 1.79119 -1.64535 1 1
459 1 17.8249 10.7004 3.57561 -0.0585538 2.72758 -9.14264 1 1
460 1 19.6006 12.5006 3.54505 -1.66748 9.23999 2.43266 1 1
461 1 18.755 11.6201 4.41711 -8.99704 1.6865 1.77002 1 1
462 1 18.7551 13.372 6.26284 -0.19898 -3.50047 -0.254117 1 1
463 1 20.4742 13.3523 4.47581 2.49161 6.27034 -9.24435 1 1
464 1 20.5285 11.5674 6.2038 4.51505 -1.46808 -2.29854 1 1
465 1 1.75036 14.2685 5.36556 2.29898 2.71862 6.42438 1 1
466 1 1.74643 16.0593 3.55433 -0.388345 3.04111 -0.980637 1 1
467 1 0.824587 15.1743 4.49407 -4.65742 -4.20147 3.55386 1 1
468 1 2.63182 15.1331 6.29074 8.56115 0.857627 8.13692 1 1
469 1 2.64228 16.9799 4.43937 -4.64441 -1.22866 2.45165 1 1
470 1 21.4025 16.0242 5.346 2.93122 -0.240211 -1.23284 1 1
471 1 21.3629 14.228 3.56977 7.26532 3.1154 -5.26884 1 1
472 1 1.73775 17.8623 5.37923 -5.41526 -3.18063 -5.48678 1 1
473 1 5.3644 14.269 5.37491 -0.118442 5.56621 0.731392 1 1
474 1 3.52636 16.0682 5.36166 2.09164 -0.643945 -5.56436 1 1
475 1 5.33039 16.0561 3.5683 1.37009 -1.9008 3.54531 1 1
476 1 4.45996 15.1936 4.47603 -7.21593 5.96234 -3.62562 1 1
477 1 4.44332 16.951 6.25705 1.38439 -1.54033 3.0473 1 1
478 1 6.22063 15.1787 6.25005 0.417521 5.29208 -0.989312 1 1
479 1 6.2445 16.9867 4.44237 8.7311 -2.88204 -4.43821 1 1
480 1 7.1006 16.0324 5.3581 0.544288 7.06591 -5.01201 1 1
481 1 8.90005 14.273 5.32389 7.44349 -9.45306 -6.39822 1 1
482 1 8.94359 16.0499 3.57921 10.9419 1.9641 -1.31767 1 1
483 1 8.05209 15.1748 4.47204 -7.99341 -2.78201 -1.27436 1 1
484 1 8.04655 16.9296 6.2476 1.54705 5.86987 1.72124 1 1
485 1 9.82353 15.1448 6.20075 -2.88725 0.240326 -13.8008 1 1
486 1 9.80903 16.9166 4.46179 0.838757 1.65228 5.84953 1 1
487 1 10.7219 16.0678 5.32411 -0.523505 4.63503 0.637446 1 1
488 1 8.91881 17.7809 5.35714 7.27161 -5.07619 3.70858 1 1
489 1 10.6709 17.8571 3.54832 2.72182 0.155867 -3.42951 1 1
490 1 12.4648 14.2694 5.34695 -2.56019 -7.15289 3.14159 1 1
491 1 12.4821 16.0455 3.54992 -0.435105 -2.18112 0.385127 1 1
492 1 11.5291 15.1342 4.45186 -8.14766 0.252158 1.38924 1 1
493 1 11.5803 16.9465 6.20852 1.7034 -0.658974 -4.99729 1 1
494 1 13.3535 16.9471 4.47072 0.703318 2.19215 -6.57413 1 1
495 1 13.3773 15.1295 6.22311 -8.31869 -4.86894 -1.46016 1 1
496 1 12.4705 17.8321 5.34479 -6.95905 -8.01727 -9.32334 1 1
497 1 14.257 14.2707 3.56707 3.87308 -5.45712 0.0624488 1 1
498 1 16.0671 14.2475 5.35665 3.65305 2.96672 -6.11453 1 1
499 1 17.8795 14.2839 3.53174 -6.14102 0.173348 6.66777 1 1
500 1 14.2967 16.0393 5.3681 0.356104 -0.297559 0.730968 1 1
501 1 14.2655 17.788 3.54428 -3.71701 -0.764823 -3.4762 1 1
502 1 16.0451 16.0199 3.57021 -1.80632 -1.43315 0.372276 1 1
503 1 15.1591 15.1787 4.46412 3.54502 -7.48249 0.916347 1 1
504 1 16.9433 16.9468 4.45085 -2.29098 5.31563 9.80745 1 1
505 1 16.9876 15.1084 6.25907 4.47628 -2.46651 0.337063 1 1
506 1 17.8268 16.0742 5.35417 -0.779921 -2.60453 -5.59442 1 1
507 1 19.6302 14.2488 5.35118 1.69415 7.59723 0.350042 1 1
508 1 19.627 16.0639 3.54425 13.3768 0.06674 -6.28688 1 1
509 1 18.7377 15.1815 4.47358 7.98075 3.44862 6.50863 1 1
510 1 20.4887 16.9342 4.4847 2.6514 1.26467 0.85622 1 1
511 1 19.5888 17.8536 5.36029 -5.82981 -5.89829 4.45327 1 1
512 1 20.5237 15.1665 6.24528 -0.516054 -2.65623 1.06364 1 1
513 1 1.75042 19.6254 3.59775 9.8757 2.37801 -3.88146 1 1
514 1 0.845907 18.7144 4.47564 -0.0236654 9.47652 2.89732 1 1
515 1 0.892323 20.525 6.23264 -6.04093 -1.64052 5.25344 1 1
516 1 2.70595 20.5064 4.49565 -6.92964 1.18884 0.72066 1 1
517 1 21.3434 17.8499 3.59985 8.56016 -8.32044 -3.7205 1 1
518 1 21.3701 19.5841 5.35046 9.13434 -9.69855 -0.829835 1 1
519 1 2.70395 18.7882 6.24944 10.4817 1.5873 4.10508 1 1
520 1 5.34522 17.8386 5.39881 5.14743 0.221022 1.25408 1 1
521 1 3.57641 17.8146 3.58658 2.65022 -1.48778 -3.41315 1 1
522 1 3.58584 19.6532 5.36141 -2.01155 -4.14066 6.83406 1 1
523 1 5.34682 19.5885 3.56817 -4.72065 2.84195 4.02479 1 1
524 1 4.47003 18.6986 4.44484 4.7594 1.50836 4.89952 1 1
525 1 4.45894 20.4908 6.23304 3.4383 1.24275 -2.44399 1 1
526 1 6.25241 18.7551 6.29637 -5.24072 -3.90804 0.786088 1 1
527 1 6.26078 20.5267 4.48029 2.8257 -4.44975 0.189772 1 1
528 1 7.16239 17.7901 3.59298 4.60749 -0.921118 -0.391987 1 1
529 1 7.15595 19.6347 5.33499 -6.31887 1.01304 9.92077 1 1
530 1 8.85793 21.3815 5.34557 -2.27244 1.26633 -6.79825 1 1
531 1 8.93307 19.5965 3.53255 8.6239 -0.578699 1.17207 1 1
532 1 8.06774 18.719 4.41911 4.16483 5.85197 0.536947 1 1
533 1 8.02295 20.5302 6.22887 11.1978 -0.923472 -3.8548 1 1
534 1 9.79565 18.7229 6.22571 -2.84325 -8.0937 -10.5069 1 1
535 1 9.77786 20.4676 4.42047 5.43985 3.35213 6.93585 1 1
536 1 10.6561 19.6072 5.34416 -2.42528 -3.21216 6.4842 1 1
537 1 10.689 0.0184939 3.54711 -3.98801 -1.96044 -1.75277 1 1
538 1 12.5286 19.5914 3.56102 -5.70566 6.87377 9.26759 1 1
539 1 11.5599 18.7651 4.43719 -0.503439 7.8239 4.7998 1 1
540 1 13.4214 18.7292 6.22336 0.490412 -0.428942 8.28907 1 1
541 1 13.3906 20.51 4.434 -1.95549 0.248427 8.47152 1 1
542 1 16.0809 17.7991 5.32502 -3.30767 3.38506 -5.68201 1 1
543 1 14.2333 21.3908 3.56351 2.94289 3.61599 2.75018 1 1
544 1 14.2367 19.6494 5.32913 -0.163192 -10.0925 -2.44901 1 1
545 1 16.0424 19.5365 3.61115 5.14705 -0.663382 3.08576 1 1
546 1 15.1152 18.6815 4.42064 5.48918 0.433872 8.09082 1 1
547 1 16.9369 18.7131 6.19809 -2.37375 -3.30546 -0.60185 1 1
548 1 16.9505 20.4647 4.45671 3.35807 3.47883 0.154117 1 1
549 1 17.839 19.5839 5.37526 -0.226381 -1.58828 0.289358 1 1
550 1 17.8697 17.8475 3.53858 -4.59013 0.191657 -0.336407 1 1
551 1 19.5578 19.6048 3.54604 2.7155 -1.0205 -1.72963 1 1
552 1 18.7346 18.7286 4.45499 -9.73567 -5.83948 1.68208 1 1
553 1 18.732 20.5207 6.27302 -12.9938 -5.53278 -1.67009 1 1
554 1 20.4817 18.6907 6.2348 -2.48107 3.23277 11.7414 1 1
555 1 20.4802 20.49 4.43138 -2.35841 8.32124 -2.23097 1 1
556 1 2.6772 0.929907 6.22088 1.53878 2.9649 6.86492 1 1