ITEM: TIMESTEP
350
ITEM: NUMBER OF ATOMS
2953
ITEM: BOX BOUNDS pp pp mm
0.0000000000000000e+00 2.1394294200000001e+01
0.0000000000000000e+00 2.1394294200000001e+01
-4.4571446250000002e-01 5.3485735500000004e+01
ITEM: ATOMS id type x y z vx vy vz v_is_diamond c_structure_type
1 1 0 0 0 0 0 0 1 3
2 1 -0.00297231 1.81298 1.7624 -9.75256 4.52175 -2.1208 1 1
3 1 1.78684 0.0176117 1.81183 -3.69839 -1.57183 -0.235167 1 1
4 1 1.78286 1.78286 0 0 0 0 1 3
5 1 0.891429 0.891429 0.891429 0 0 0 1 2
6 1 0.912594 2.698 2.66175 1.43803 -7.91011 10.7791 1 1
7 1 2.67379 0.943282 2.65445 9.63344 -9.07745 1.38558 1 1
8 1 2.67429 2.67429 0.891429 0 0 0 1 2
9 1 3.56572 0 0 0 0 0 1 3
10 1 3.56896 1.82084 1.78041 -1.70146 -0.707226 3.88453 1 1
11 1 5.3162 0.0447681 1.83026 8.35513 3.62027 -9.12711 1 1
12 1 5.34857 1.78286 0 0 0 0 1 3
13 1 4.45714 0.891429 0.891429 0 0 0 1 2
14 1 4.44245 2.65872 2.70887 -4.6514 6.50286 -13.8186 1 1
15 1 6.19198 0.933326 2.68335 -1.00059 -0.218603 5.42574 1 1
16 1 6.24 2.67429 0.891429 0 0 0 1 2
17 1 7.13143 0 0 0 0 0 1 3
18 1 7.07101 1.79805 1.78955 -0.544495 3.59183 5.46536 1 1
19 1 8.90111 21.3681 1.75612 -0.471794 -7.0781 6.32004 1 1
20 1 8.91429 1.78286 0 0 0 0 1 3
21 1 8.02286 0.891429 0.891429 0 0 0 1 2
22 1 7.98194 2.66721 2.67178 5.94008 2.07227 5.11555 1 1
23 1 9.78499 0.879336 2.64573 5.16061 1.32029 0.91513 1 1
24 1 9.80572 2.67429 0.891429 0 0 0 1 2
25 1 10.6971 0 0 0 0 0 1 3
26 1 10.6884 1.7811 1.7742 -2.33804 4.63909 2.75548 1 1
27 1 12.4814 21.3888 1.80575 6.78331 -0.0534688 -4.6207 1 1
28 1 12.48 1.78286 0 0 0 0 1 3
29 1 11.5886 0.891429 0.891429 0 0 0 1 2
30 1 11.5793 2.69083 2.66835 9.04618 5.57091 2.96621 1 1
31 1 13.4086 0.875183 2.73323 -0.811398 5.52423 -3.6734 1 1
32 1 13.3714 2.67429 0.891429 0 0 0 1 2
33 1 14.2629 0 0 0 0 0 1 3
34 1 14.2343 1.74622 1.79988 5.09751 -3.71553 -6.2147 1 1
35 1 16.0472 21.3862 1.81795 1.82941 -4.29479 -3.15958 1 1
36 1 16.0457 1.78286 0 0 0 0 1 3
37 1 15.1543 0.891429 0.891429 0 0 0 1 2
38 1 15.1422 2.65954 2.69488 -5.38456 -1.46504 -1.50929 1 1
39 1 16.937 0.892996 2.68676 3.05486 1.96527 4.60544 1 1
40 1 16.9371 2.67429 0.891429 0 0 0 1 2
41 1 17.8286 0 0 0 0 0 1 3
42 1 17.8099 1.77118 1.76345 3.49763 3.52221 5.62313 1 1
43 1 19.6453 0.028566 1.81383 6.59037 -5.19271 11.3473 1 1
44 1 19.6114 1.78286 0 0 0 0 1 3
45 1 18.72 0.891429 0.891429 0 0 0 1 2
46 1 18.7279 2.67685 2.67639 -3.74549 -0.49988 1.52054 1 1
47 1 20.4956 0.96094 2.65038 -4.60919 3.95208 3.56643 1 1
48 1 20.5029 2.67429 0.891429 0 0 0 1 2
49 1 0 3.56572 0 0 0 0 1 3
50 1 0.0247343 5.35989 1.78048 0.469214 -3.73632 2.8747 1 1
51 1 1.79302 3.58821 1.78091 -8.34012 -2.91092 -0.0168827 1 1
52 1 1.78286 5.34857 0 0 0 0 1 3
53 1 0.891429 4.45714 0.891429 0 0 0 1 2
54 1 0.919348 6.23794 2.70888 -0.754147 -1.37202 -1.38189 1 1
55 1 2.67229 4.47692 2.72385 -7.59724 1.70573 4.44016 1 1
56 1 2.67429 6.24 0.891429 0 0 0 1 2
57 1 3.56572 3.56572 0 0 0 0 1 3
58 1 3.57757 5.32141 1.78472 -1.30866 -4.21926 0.264287 1 1
59 1 5.33123 3.56834 1.80353 3.0944 -1.43823 0.73041 1 1
60 1 5.34857 5.34857 0 0 0 0 1 3
61 1 4.45714 4.45714 0.891429 0 0 0 1 2
62 1 4.49199 6.23147 2.66849 1.24111 -4.01461 -1.50946 1 1
63 1 6.24877 4.46687 2.69513 -0.274593 -2.64102 -0.80561 1 1
64 1 6.24 6.24 0.891429 0 0 0 1 2
65 1 7.13143 3.56572 0 0 0 0 1 3
66 1 7.12226 5.33886 1.78457 2.60201 -6.1232 5.93876 1 1
67 1 8.91212 3.56773 1.8375 -5.07961 -6.27956 -0.947039 1 1
68 1 8.91429 5.34857 0 0 0 0 1 3
69 1 8.02286 4.45714 0.891429 0 0 0 1 2
70 1 8.02168 6.24532 2.68874 -0.86002 3.74934 0.228726 1 1
71 1 9.81316 4.45846 2.69684 -0.387849 0.918669 0.0998416 1 1
72 1 9.80572 6.24 0.891429 0 0 0 1 2
73 1 10.6971 3.56572 0 0 0 0 1 3
74 1 10.7265 5.33125 1.81844 2.76152 2.31981 -4.06178 1 1
75 1 12.4902 3.56746 1.78179 6.0521 3.80765 0.180968 1 1
76 1 12.48 5.34857 0 0 0 0 1 3
77 1 11.5886 4.45714 0.891429 0 0 0 1 2
78 1 11.5456 6.29876 2.7352 -1.55277 2.6605 4.06991 1 1
79 1 13.3741 4.43749 2.6984 -0.991691 -0.332677 7.55012 1 1
80 1 13.3714 6.24 0.891429 0 0 0 1 2
81 1 14.2629 3.56572 0 0 0 0 1 3
82 1 14.2742 5.36677 1.77755 -1.6588 0.845583 4.59604 1 1
83 1 16.0182 3.53969 1.80774 -1.82061 4.62499 2.21728 1 1
84 1 16.0457 5.34857 0 0 0 0 1 3
85 1 15.1543 4.45714 0.891429 0 0 0 1 2
86 1 15.1861 6.21722 2.66233 -4.36437 6.0517 -4.18752 1 1
87 1 16.9655 4.40116 2.6782 1.58245 -1.53013 6.57304 1 1
88 1 16.9371 6.24 0.891429 0 0 0 1 2
89 1 17.8286 3.56572 0 0 0 0 1 3
90 1 17.7959 5.33854 1.77642 -1.55461 -6.0357 -1.20693 1 1
91 1 19.6021 3.55284 1.74914 -0.978589 2.13065 -2.13282 1 1
92 1 19.6114 5.34857 0 0 0 0 1 3
93 1 18.72 4.45714 0.891429 0 0 0 1 2
94 1 18.7297 6.22181 2.66853 -10.9184 1.16443 10.5064 1 1
95 1 20.5202 4.43116 2.72076 -3.54481 5.15285 -2.03071 1 1
96 1 20.5029 6.24 0.891429 0 0 0 1 2
97 1 0 7.13143 0 0 0 0 1 3
98 1 0.0384809 8.90604 1.78303 -4.48627 5.84403 6.87292 1 1
99 1 1.78586 7.11447 1.78606 -2.60283 3.07101 -0.765977 1 1
100 1 1.78286 8.91429 0 0 0 0 1 3
101 1 0.891429 8.02286 0.891429 0 0 0 1 2
102 1 0.890554 9.79808 2.70255 0.0035432 1.75763 7.68825 1 1
103 1 2.70675 8.02353 2.63396 -0.465076 11.8705 -7.08347 1 1
104 1 2.67429 9.80572 0.891429 0 0 0 1 2
105 1 3.56572 7.13143 0 0 0 0 1 3
106 1 3.55219 8.87295 1.75259 0.150861 7.39862 -5.68688 1 1
107 1 5.38749 7.11806 1.8069 3.33382 3.03367 -6.03897 1 1
108 1 5.34857 8.91429 0 0 0 0 1 3
109 1 4.45714 8.02286 0.891429 0 0 0 1 2
110 1 4.45205 9.77308 2.64839 -3.66958 -1.62514 -11.1518 1 1
111 1 6.27035 8.02518 2.71556 -2.08907 -4.36237 4.45316 1 1
112 1 6.24 9.80572 0.891429 0 0 0 1 2
113 1 7.13143 7.13143 0 0 0 0 1 3
114 1 7.14247 8.86728 1.77364 -2.56059 0.769842 -7.65731 1 1
115 1 8.88897 7.1267 1.80366 -3.94551 2.17953 3.28625 1 1
116 1 8.91429 8.91429 0 0 0 0 1 3
117 1 8.02286 8.02286 0.891429 0 0 0 1 2
118 1 8.06962 9.80821 2.67028 1.81762 -2.96129 -6.94297 1 1
119 1 9.75101 8.00861 2.67593 3.36199 2.95888 3.53084 1 1
120 1 9.80572 9.80572 0.891429 0 0 0 1 2
121 1 10.6971 7.13143 0 0 0 0 1 3
122 1 10.6655 8.90124 1.80772 7.011 -2.18069 3.02681 1 1
123 1 12.4765 7.1046 1.80593 -2.44483 -0.663032 -8.26422 1 1
124 1 12.48 8.91429 0 0 0 0 1 3
125 1 11.5886 8.02286 0.891429 0 0 0 1 2
126 1 11.5872 9.78887 2.73935 5.57573 -8.11174 3.46829 1 1
127 1 13.3773 8.01376 2.70275 -6.10645 5.14442 -0.85184 1 1
128 1 13.3714 9.80572 0.891429 0 0 0 1 2
129 1 14.2629 7.13143 0 0 0 0 1 3
130 1 14.267 8.89919 1.78895 -6.40819 0.83311 6.91075 1 1
131 1 16.0631 7.12977 1.78614 -6.33583 1.92034 2.77934 1 1
132 1 16.0457 8.91429 0 0 0 0 1 3
133 1 15.1543 8.02286 0.891429 0 0 0 1 2
134 1 15.1494 9.78016 2.7042 5.46249 -0.153702 5.44415 1 1
135 1 16.9498 8.03481 2.71469 -10.0406 3.68492 9.45692 1 1
136 1 16.9371 9.80572 0.891429 0 0 0 1 2
137 1 17.8286 7.13143 0 0 0 0 1 3
138 1 17.8255 8.92127 1.81897 -4.35075 -6.10449 3.94625 1 1
139 1 19.5896 7.14278 1.79151 -9.19856 0.164153 -1.31572 1 1
140 1 19.6114 8.91429 0 0 0 0 1 3
141 1 18.72 8.02286 0.891429 0 0 0 1 2
142 1 18.7449 9.7667 2.68079 6.28432 10.6999 -4.98953 1 1
143 1 20.4834 8.03466 2.68657 1.13986 2.93242 -3.38432 1 1
144 1 20.5029 9.80572 0.891429 0 0 0 1 2
145 1 0 10.6971 0 0 0 0 1 3
146 1 21.3888 12.5228 1.84992 -4.85276 0.457985 5.03902 1 1
147 1 1.77165 10.719 1.79019 -0.664256 -2.81089 -3.40287 1 1
148 1 1.78286 12.48 0 0 0 0 1 3
149 1 0.891429 11.5886 0.891429 0 0 0 1 2
150 1 0.892822 13.402 2.72389 1.56163 2.8945 -1.8917 1 1
151 1 2.6567 11.5892 2.67796 5.61513 1.47811 1.92414 1 1
152 1 2.67429 13.3714 0.891429 0 0 0 1 2
153 1 3.56572 10.6971 0 0 0 0 1 3
154 1 3.53805 12.5017 1.82113 6.25075 -8.18473 8.95542 1 1
155 1 5.31722 10.6762 1.78025 -8.74235 4.5285 -3.45979 1 1
156 1 5.34857 12.48 0 0 0 0 1 3
157 1 4.45714 11.5886 0.891429 0 0 0 1 2
158 1 4.46191 13.459 2.69833 0.789216 1.16043 0.400824 1 1
159 1 6.25647 11.6104 2.60769 5.68985 7.14807 14.0135 1 1
160 1 6.24 13.3714 0.891429 0 0 0 1 2
161 1 7.13143 10.6971 0 0 0 0 1 3
162 1 7.10686 12.4478 1.72395 4.89899 -3.42869 -2.22209 1 1
163 1 8.93634 10.6932 1.78905 -5.60646 -1.13913 0.022916 1 1
164 1 8.91429 12.48 0 0 0 0 1 3
165 1 8.02286 11.5886 0.891429 0 0 0 1 2
166 1 8.02204 13.3645 2.65754 5.56696 3.70535 -3.79257 1 1
167 1 9.81758 11.5642 2.66565 -3.74245 5.37624 2.29823 1 1
168 1 9.80572 13.3714 0.891429 0 0 0 1 2
169 1 10.6971 10.6971 0 0 0 0 1 3
170 1 10.688 12.4788 1.71383 12.0907 -1.5841 -1.25971 1 1
171 1 12.4518 10.6967 1.77947 2.02115 4.85192 -1.10531 1 1
172 1 12.48 12.48 0 0 0 0 1 3
173 1 11.5886 11.5886 0.891429 0 0 0 1 2
174 1 11.6091 13.3649 2.64209 -4.14106 -2.45531 4.38948 1 1
175 1 13.3709 11.5532 2.66128 -2.72491 0.169854 -1.19439 1 1
176 1 13.3714 13.3714 0.891429 0 0 0 1 2
177 1 14.2629 10.6971 0 0 0 0 1 3
178 1 14.268 12.4744 1.77459 -4.26979 8.71851 2.4466 1 1
179 1 16.0829 10.6847 1.7761 5.62125 1.3666 0.870273 1 1
180 1 16.0457 12.48 0 0 0 0 1 3
181 1 15.1543 11.5886 0.891429 0 0 0 1 2
182 1 15.1632 13.3527 2.64268 -1.37075 -4.65758 -4.82265 1 1
183 1 16.9879 11.5812 2.69756 -5.80652 -5.64264 -0.21713 1 1
184 1 16.9371 13.3714 0.891429 0 0 0 1 2
185 1 17.8286 10.6971 0 0 0 0 1 3
186 1 17.8265 12.4857 1.78781 6.16292 1.28553 0.261707 1 1
187 1 19.6429 10.708 1.78373 -4.39643 -0.984647 -0.0129844 1 1
188 1 19.6114 12.48 0 0 0 0 1 3
189 1 18.72 11.5886 0.891429 0 0 0 1 2
190 1 18.7154 13.3641 2.69873 -5.29047 0.0380919 8.59084 1 1
191 1 20.4962 11.6351 2.70241 2.97679 -5.90056 1.0074 1 1
192 1 20.5029 13.3714 0.891429 0 0 0 1 2
193 1 0 14.2629 0 0 0 0 1 3
194 1 0.000511465 16.081 1.73028 -2.1804 5.82162 -1.63874 1 1
195 1 1.8026 14.2512 1.79974 -5.78876 1.94471 2.9491 1 1
196 1 1.78286 16.0457 0 0 0 0 1 3
197 1 0.891429 15.1543 0.891429 0 0 0 1 2
198 1 0.891017 16.9477 2.63282 13.5015 4.54425 -1.09739 1 1
199 1 2.67139 15.1709 2.67272 -0.0316897 0.701423 4.51148 1 1
200 1 2.67429 16.9371 0.891429 0 0 0 1 2
201 1 3.56572 14.2629 0 0 0 0 1 3
202 1 3.62248 16.0319 1.7948 -3.46074 -10.9238 2.33776 1 1
203 1 5.41375 14.2706 1.79929 -0.0791017 4.85234 -3.06033 1 1
204 1 5.34857 16.0457 0 0 0 0 1 3
205 1 4.45714 15.1543 0.891429 0 0 0 1 2
206 1 4.47572 16.9645 2.68276 -3.43043 -3.04323 -5.20663 1 1
207 1 6.26311 15.1389 2.65356 1.24239 -5.31808 0.110052 1 1
208 1 6.24 16.9371 0.891429 0 0 0 1 2
209 1 7.13143 14.2629 0 0 0 0 1 3
210 1 7.14472 16.0598 1.73839 -0.206169 0.479923 0.892023 1 1
211 1 8.91527 14.2556 1.77643 6.02735 -2.9015 2.82378 1 1
212 1 8.91429 16.0457 0 0 0 0 1 3
213 1 8.02286 15.1543 0.891429 0 0 0 1 2
214 1 8.03534 16.9684 2.62779 -1.39925 -4.54742 -7.80907 1 1
215 1 9.79254 15.1493 2.65738 6.22554 0.662741 -5.1848 1 1
216 1 9.80572 16.9371 0.891429 0 0 0 1 2
217 1 10.6971 14.2629 0 0 0 0 1 3
218 1 10.6958 16.0611 1.81542 -2.62228 1.46628 3.21844 1 1
219 1 12.486 14.2817 1.76302 -4.09775 -0.116136 12.6879 1 1
220 1 12.48 16.0457 0 0 0 0 1 3
221 1 11.5886 15.1543 0.891429 0 0 0 1 2
222 1 11.6041 16.9915 2.66178 0.288195 -4.78397 0.719583 1 1
223 1 13.386 15.1305 2.65784 -0.121609 6.47182 9.84347 1 1
224 1 13.3714 16.9371 0.891429 0 0 0 1 2
225 1 14.2629 14.2629 0 0 0 0 1 3
226 1 14.2502 16.0669 1.76067 0.611961 5.44268 1.45425 1 1
227 1 16.0361 14.221 1.79109 -1.00645 0.756173 7.39131 1 1
228 1 16.0457 16.0457 0 0 0 0 1 3
229 1 15.1543 15.1543 0.891429 0 0 0 1 2
230 1 15.1571 16.9125 2.70527 -1.03034 -1.01243 1.82901 1 1
231 1 16.9382 15.2161 2.69342 0.371986 2.53895 -2.07038 1 1
232 1 16.9371 16.9371 0.891429 0 0 0 1 2
233 1 17.8286 14.2629 0 0 0 0 1 3
234 1 17.7954 16.0692 1.77342 -1.64927 -4.87066 -0.95058 1 1
235 1 19.6261 14.3158 1.77853 1.76364 -2.48195 8.75074 1 1
236 1 19.6114 16.0457 0 0 0 0 1 3
237 1 18.72 15.1543 0.891429 0 0 0 1 2
238 1 18.7279 16.9495 2.64819 9.03578 -4.17677 -1.89209 1 1
239 1 20.5422 15.1648 2.66021 -7.08694 2.8194 -1.57361 1 1
240 1 20.5029 16.9371 0.891429 0 0 0 1 2
241 1 0 17.8286 0 0 0 0 1 3
242 1 0.0346357 19.6336 1.75377 -1.7421 9.49061 -1.93507 1 1
243 1 1.78319 17.8266 1.81542 3.34013 -5.95631 5.72245 1 1
244 1 1.78286 19.6114 0 0 0 0 1 3
245 1 0.891429 18.72 0.891429 0 0 0 1 2
246 1 0.88621 20.547 2.71511 7.17099 -1.20074 -1.64983 1 1
247 1 2.68091 18.7598 2.68793 0.160486 -2.50851 -0.252433 1 1
248 1 2.67429 20.5029 0.891429 0 0 0 1 2
249 1 3.56572 17.8286 0 0 0 0 1 3
250 1 3.54905 19.6161 1.72649 2.60603 1.09792 0.159758 1 1
251 1 5.35934 17.8609 1.79558 0.887887 1.44794 0.162494 1 1
252 1 5.34857 19.6114 0 0 0 0 1 3
253 1 4.45714 18.72 0.891429 0 0 0 1 2
254 1 4.41169 20.5318 2.6894 -12.0021 2.52178 -1.10025 1 1
255 1 6.26441 18.6983 2.66741 -2.24413 -5.16588 3.83304 1 1
256 1 6.24 20.5029 0.891429 0 0 0 1 2
257 1 7.13143 17.8286 0 0 0 0 1 3
258 1 7.12131 19.5854 1.78724 4.86227 -1.80538 0.934456 1 1
259 1 8.88499 17.8628 1.80782 1.26947 -2.83377 -7.85215 1 1
260 1 8.91429 19.6114 0 0 0 0 1 3
261 1 8.02286 18.72 0.891429 0 0 0 1 2
262 1 8.04177 20.5039 2.69127 -13.7752 0.406356 7.65113 1 1
263 1 9.81047 18.7488 2.68513 0.265186 -0.0780824 -8.44133 1 1
264 1 9.80572 20.5029 0.891429 0 0 0 1 2
265 1 10.6971 17.8286 0 0 0 0 1 3
266 1 10.7224 19.6222 1.79977 7.51875 -10.1626 -0.78667 1 1
267 1 12.4962 17.8908 1.78152 8.80997 -5.36948 1.82429 1 1
268 1 12.48 19.6114 0 0 0 0 1 3
269 1 11.5886 18.72 0.891429 0 0 0 1 2
270 1 11.5765 20.5144 2.72852 0.129138 -0.89386 4.15664 1 1
271 1 13.3683 18.7406 2.68956 -3.28301 -4.73806 2.01852 1 1
272 1 13.3714 20.5029 0.891429 0 0 0 1 2
273 1 14.2629 17.8286 0 0 0 0 1 3
274 1 14.268 19.5866 1.79878 2.60519 -0.151506 3.34218 1 1
275 1 16.0653 17.813 1.7947 -2.8506 -1.02655 3.87086 1 1
276 1 16.0457 19.6114 0 0 0 0 1 3
277 1 15.1543 18.72 0.891429 0 0 0 1 2
278 1 15.1909 20.5147 2.68783 0.10619 -3.80467 3.74142 1 1
279 1 16.9905 18.6967 2.68675 -1.96371 0.664304 4.84482 1 1
280 1 16.9371 20.5029 0.891429 0 0 0 1 2
281 1 17.8286 17.8286 0 0 0 0 1 3
282 1 17.837 19.613 1.7879 -0.655791 1.74497 -0.576164 1 1
283 1 19.6099 17.871 1.75729 0.235868 6.58394 -0.23772 1 1
284 1 19.6114 19.6114 0 0 0 0 1 3
285 1 18.72 18.72 0.891429 0 0 0 1 2
286 1 18.7138 20.5479 2.67013 2.40645 1.59003 1.87499 1 1
287 1 20.5304 18.7348 2.67041 0.255237 -5.33948 0.505428 1 1
288 1 20.5029 20.5029 0.891429 0 0 0 1 2
289 1 0.0419623 0.030729 3.59707 3.36653 -6.69145 10.2032 1 1
290 1 21.3668 1.79774 5.37111 2.16906 -2.31582 2.60725 1 1
291 1 1.75206 0.0275634 5.38722 8.17018 -10.3107 1.26838 1 1
292 1 1.79502 1.77622 3.59489 -0.498912 5.53602 -2.73776 1 1
293 1 0.907332 0.940955 4.49445 -1.98717 6.2083 4.83843 1 1
294 1 0.890867 2.66648 6.32286 -0.0213084 -0.774264 -5.39833 1 1
295 1 2.6463 0.86648 6.29138 -9.22057 7.45643 2.78889 1 1
296 1 2.70739 2.68878 4.50937 -1.87302 -3.75849 2.80221 1 1
297 1 3.51422 0.0348736 3.55556 -7.42676 -2.01405 -6.9227 1 1
298 1 3.53451 1.76461 5.42778 6.82784 2.57141 -0.274134 1 1
299 1 5.28793 21.3506 5.39827 -8.25135 0.117109 -6.55325 1 1
300 1 5.32237 1.81318 3.60667 7.25344 -0.744483 0.535178 1 1
301 1 4.45862 0.857583 4.45556 3.08549 5.59182 8.99584 1 1
302 1 4.40327 2.67475 6.3043 -1.04289 -9.50023 5.5441 1 1
303 1 6.22128 0.875326 6.2825 5.08321 -0.651027 1.06225 1 1
304 1 6.25324 2.6396 4.5035 3.23572 -1.08149 6.85027 1 1
305 1 7.1117 0.00136317 3.58658 -0.310271 -0.0928687 -1.67611 1 1
306 1 7.12254 1.78413 5.39841 -4.78581 -0.275304 3.85311 1 1
307 1 8.87598 0.0281558 5.40744 -5.79647 0.0484144 2.17573 1 1
308 1 8.89564 1.75589 3.55395 7.55575 7.15595 4.81874 1 1
309 1 7.97927 0.886207 4.4302 6.03806 -0.541521 4.50504 1 1
310 1 8.0623 2.66415 6.28404 6.22776 -0.690407 2.13761 1 1
311 1 9.78098 0.848209 6.31878 -2.73047 -2.3904 0.0316785 1 1
312 1 9.80808 2.67547 4.44491 -0.953699 1.44396 5.04548 1 1
313 1 10.6541 0.0231073 3.57057 0.34012 -1.41867 1.53943 1 1
314 1 10.6323 1.79902 5.35003 1.95479 -1.40047 0.857585 1 1
315 1 12.4448 21.3612 5.33698 -5.71256 -0.834538 6.33926 1 1
316 1 12.4501 1.7726 3.56529 -4.9935 0.0594957 -2.93665 1 1
317 1 11.5286 0.872799 4.44522 -0.395828 3.57639 0.0291444 1 1
318 1 11.5752 2.66497 6.31415 5.29846 0.136598 4.01064 1 1
319 1 13.3379 0.897939 6.26113 2.48368 -0.823021 6.97861 1 1
320 1 13.3705 2.64406 4.4705 5.55533 1.7522 -3.00384 1 1
321 1 14.2535 0.0050379 3.56436 2.84626 -3.10961 -4.1403 1 1
322 1 14.2679 1.75939 5.39066 9.0338 -0.009757 -3.43067 1 1
323 1 16.0242 21.3713 5.33434 -3.34887 5.01956 -1.06526 1 1
324 1 16.0837 1.76058 3.55472 -1.34214 8.63332 0.919775 1 1
325 1 15.1788 0.903361 4.46526 1.63815 5.56723 -1.91522 1 1
326 1 15.143 2.67409 6.27473 -3.68584 -0.574877 1.11035 1 1
327 1 16.9025 0.855026 6.26101 5.00834 1.44648 5.68638 1 1
328 1 16.9258 2.6548 4.47855 -7.92836 9.72314 1.53852 1 1
329 1 17.8515 21.3843 3.54835 -2.16086 3.49105 -2.19686 1 1
330 1 17.8439 1.7331 5.39401 2.53954 -5.90598 -5.50701 1 1
331 1 19.6035 21.3821 5.38222 -0.442993 5.06636 -8.89054 1 1
332 1 19.6071 1.78763 3.57137 1.06553 -0.736034 -6.91928 1 1
333 1 18.7449 0.899413 4.49473 -4.53601 2.82197 10.5282 1 1
334 1 18.6794 2.65814 6.27562 8.32755 8.3219 1.62196 1 1
335 1 20.4941 0.891311 6.26788 -4.79001 -1.06847 3.04199 1 1
336 1 20.4874 2.65106 4.46764 -1.65009 1.74652 9.36317 1 1
337 1 0.0140405 3.55734 3.59321 7.35576 1.26302 3.91739 1 1
338 1 0.0526297 5.34316 5.38931 0.773283 4.6588 -2.45971 1 1
339 1 1.78044 3.55646 5.38995 4.47431 0.015002 -1.58437 1 1
340 1 1.80062 5.36192 3.59086 -3.95602 -6.74014 -2.89 1 1
341 1 0.908961 4.41472 4.48255 5.0766 0.196551 -1.5231 1 1
342 1 0.915681 6.23459 6.24085 -1.86318 -6.95194 8.17235 1 1
343 1 2.68634 4.45669 6.28812 -2.86123 -2.39606 1.07156 1 1
344 1 2.72395 6.29437 4.4676 5.69143 4.38083 1.8737 1 1
345 1 3.58506 3.57282 3.65763 3.60274 -3.04545 -12.8884 1 1
346 1 3.63897 5.38213 5.41606 4.39291 -2.56233 2.41669 1 1
347 1 5.34172 3.55267 5.39994 -4.01379 4.38821 1.12389 1 1
348 1 5.34584 5.32717 3.58193 5.69701 0.241925 -1.61776 1 1
349 1 4.48972 4.46514 4.54071 -0.0582217 2.37309 -3.39084 1 1
350 1 4.47698 6.2693 6.30242 0.376871 6.12171 -1.38839 1 1
351 1 6.27237 4.48579 6.27258 -3.38487 3.43855 -3.95216 1 1
352 1 6.26649 6.1998 4.48671 -3.10562 -2.91666 1.6947 1 1
353 1 7.10997 3.5807 3.60789 4.7091 1.13864 1.67395 1 1
354 1 7.13474 5.35927 5.36784 10.0097 3.54047 0.245417 1 1
355 1 8.93145 3.56129 5.38142 -0.488253 4.8148 3.60273 1 1
356 1 8.87695 5.36374 3.58517 -4.15584 0.416618 12.2995 1 1
357 1 8.06274 4.47641 4.47297 -7.11603 3.46886 6.50856 1 1
358 1 8.04204 6.2236 6.3003 -0.182718 4.73294 5.17685 1 1
359 1 9.79634 4.45352 6.32209 2.92331 -2.62499 6.84739 1 1
360 1 9.78942 6.2372 4.48081 -2.02248 2.35115 -3.17027 1 1
361 1 10.7474 3.56261 3.59162 5.64236 -2.97034 -1.19837 1 1
362 1 10.6503 5.36338 5.37566 9.21808 2.68067 4.38271 1 1
363 1 12.4461 3.53639 5.42178 -1.11478 -2.04063 0.462362 1 1
364 1 12.4501 5.37724 3.56562 0.696487 15.8932 6.04212 1 1
365 1 11.5642 4.43111 4.51647 -0.0720103 0.995566 -3.41797 1 1
366 1 11.5406 6.20713 6.26622 -5.21004 3.40109 -0.52594 1 1
367 1 13.3767 4.4594 6.28589 0.395896 -0.1006 3.42358 1 1
368 1 13.3694 6.26811 4.50737 2.61467 -3.63174 6.11791 1 1
369 1 14.1971 3.55378 3.59326 -1.17626 -2.71973 -1.16818 1 1
370 1 14.2465 5.35646 5.39141 -7.31461 -3.9433 -2.98946 1 1
371 1 16.0593 3.57063 5.42904 2.5206 2.41956 -0.609499 1 1
372 1 16.0007 5.31513 3.5932 -2.53632 -0.493111 -0.923441 1 1
373 1 15.1624 4.41525 4.5155 -7.89167 -2.5064 0.764319 1 1
374 1 15.1533 6.27106 6.34263 3.13942 -3.49433 -0.384407 1 1
375 1 16.9352 4.47139 6.31406 -3.72557 6.19048 -0.810836 1 1
376 1 16.9316 6.19325 4.47922 1.06938 6.29445 4.89901 1 1
377 1 17.8312 3.54881 3.57062 -2.20459 1.92277 -13.3495 1 1
378 1 17.8172 5.36586 5.35881 -1.32872 -4.10506 4.43263 1 1
379 1 19.5897 3.51139 5.33786 -3.25592 -5.23889 3.6431 1 1
380 1 19.6795 5.34725 3.57973 -6.52011 4.1082 4.9701 1 1
381 1 18.743 4.46135 4.46676 2.72622 -0.0810936 -6.61101 1 1
382 1 18.7152 6.21587 6.22958 2.48641 -2.75294 5.74398 1 1
383 1 20.5109 4.40602 6.32813 1.87735 -2.02443 0.100763 1 1
384 1 20.5428 6.21591 4.47129 10.2832 5.253 4.44467 1 1
385 1 0.0411275 7.14666 3.60768 2.34359 6.1689 8.64926 1 1
386 1 21.3564 8.92993 5.3905 4.70007 -2.15287 3.93044 1 1
387 1 1.79665 7.11972 5.35309 1.69695 -0.0413372 0.8109 1 1
388 1 1.81327 8.91295 3.58448 6.63838 3.38862 6.8959 1 1
389 1 0.898244 8.04546 4.47673 7.12727 5.14769 1.05165 1 1
390 1 0.879497 9.78582 6.2724 -1.4459 -4.23652 -4.1735 1 1
391 1 2.71926 8.01356 6.27781 4.37009 1.75723 2.0153 1 1
392 1 2.64762 9.79756 4.47292 0.218456 -5.54596 1.694 1 1
393 1 3.59216 7.15667 3.58648 8.63827 7.40235 9.18328 1 1
394 1 3.57078 8.94361 5.39041 -2.22436 3.40602 -0.357036 1 1
395 1 5.34392 7.15139 5.36508 8.26044 0.67532 1.5206 1 1
396 1 5.3583 8.91022 3.56399 4.04487 -3.06748 -4.34178 1 1
397 1 4.48478 8.01786 4.4466 0.179916 -3.86966 2.47854 1 1
398 1 4.51026 9.76995 6.26108 6.80405 2.5015 1.68418 1 1
399 1 6.25009 8.02301 6.25916 5.56012 -0.444723 3.53486 1 1
400 1 6.26704 9.78714 4.44326 10.5006 9.38642 0.794899 1 1
401 1 7.15553 7.09223 3.58905 1.90881 1.09349 -7.55308 1 1
402 1 7.13954 8.89296 5.36988 -10.8354 1.63094 2.07648 1 1
403 1 8.87768 7.12397 5.34133 -0.432625 -0.937064 -7.46687 1 1
404 1 8.91448 8.9278 3.5866 -0.161527 1.23672 5.99274 1 1
405 1 8.03107 8.03609 4.48639 -1.07646 0.220399 1.48844 1 1
406 1 8.04017 9.81727 6.25996 1.5697 6.59086 8.79425 1 1
407 1 9.79059 8.00098 6.26944 0.232252 -2.96686 -7.95005 1 1
408 1 9.82286 9.81089 4.4896 -1.06771 -1.78355 6.58234 1 1
409 1 10.6489 7.16373 3.59134 13.163 -0.426014 4.02446 1 1
410 1 10.7067 8.88284 5.36945 -1.65688 -1.31944 4.40352 1 1
411 1 12.4705 7.14041 5.37371 -6.53723 -1.49952 2.94041 1 1
412 1 12.4824 8.92585 3.56516 -0.963602 6.8469 -1.03694 1 1
413 1 11.5592 8.02194 4.45128 4.59711 2.28082 1.54558 1 1
414 1 11.5648 9.79936 6.26952 2.62493 3.1927 -2.21671 1 1
415 1 13.3698 7.98723 6.29322 -3.11698 4.36024 5.16123 1 1
416 1 13.3416 9.7612 4.47779 0.396537 5.06684 -1.22549 1 1
417 1 14.2639 7.11655 3.6067 0.789952 -4.54931 2.63136 1 1
418 1 14.2603 8.90719 5.36983 -1.05004 -2.58933 9.65015 1 1
419 1 16.0165 7.13182 5.41812 -0.386622 -8.6493 -3.0549 1 1
420 1 16.0223 8.9141 3.62842 5.81966 -5.92858 -0.236274 1 1
421 1 15.1698 8.00947 4.49838 -4.21326 -3.05048 -2.33093 1 1
422 1 15.1621 9.81906 6.27347 -5.63139 3.0572 3.94059 1 1
423 1 16.9484 8.02466 6.27241 1.18605 -6.24015 -5.43917 1 1
424 1 16.9785 9.80094 4.5083 2.9053 -0.866202 -2.37994 1 1
425 1 17.8503 7.02999 3.56985 -0.903269 0.900439 0.240533 1 1
426 1 17.8248 8.91807 5.36037 -0.0170433 7.72142 -9.4755 1 1
427 1 19.6432 7.1728 5.39363 5.95457 -0.0279992 3.21826 1 1
428 1 19.5808 8.92586 3.55354 3.1687 -5.25987 6.65231 1 1
429 1 18.7026 7.99305 4.49604 2.04029 -6.41876 2.18201 1 1
430 1 18.6966 9.81555 6.27467 0.769583 -5.57819 -4.83171 1 1
431 1 20.4934 8.02762 6.28881 -0.154928 -1.74107 -2.66145 1 1
432 1 20.4828 9.82304 4.47 1.94377 1.85491 1.14645 1 1
433 1 0.00336699 10.7181 3.56108 -0.409906 -3.27388 -2.96532 1 1
434 1 21.3813 12.4591 5.35978 -2.66148 7.51067 -2.98162 1 1
435 1 1.7966 10.7058 5.34023 7.13657 -3.01372 -7.0194 1 1
436 1 1.77047 12.4977 3.59791 -4.10294 -6.56096 -2.6006 1 1
437 1 0.886507 11.5842 4.47868 -0.404781 -6.52642 -5.85285 1 1
438 1 0.877276 13.3754 6.28872 -1.35635 8.42239 -1.46704 1 1
439 1 2.69646 11.5418 6.22663 -8.43168 1.34491 -5.52795 1 1
440 1 2.70569 13.3223 4.45418 8.47261 -9.05572 0.323678 1 1
441 1 3.56315 10.6896 3.58501 2.61827 4.45615 6.53176 1 1
442 1 3.64435 12.4646 5.35313 -0.0235057 -4.32173 3.19628 1 1
443 1 5.36636 10.6752 5.37217 0.21047 6.01102 -6.1891 1 1
444 1 5.35413 12.4543 3.56555 -2.25886 -0.0255603 -1.5133 1 1
445 1 4.47271 11.5714 4.44667 7.17348 -0.820234 4.21321 1 1
446 1 4.46418 13.3722 6.25192 3.21977 9.76727 2.05553 1 1
447 1 6.30171 11.5649 6.27381 -4.00366 6.17904 -8.45899 1 1
448 1 6.23788 13.3557 4.46633 -1.54863 -2.28433 3.03624 1 1
449 1 7.12422 10.6941 3.57497 -2.51514 11.8009 6.15574 1 1
450 1 7.11971 12.5156 5.35594 0.963512 4.33185 4.87276 1 1
451 1 8.90522 10.6789 5.35851 3.58008 -3.12966 2.35067 1 1
452 1 8.91788 12.455 3.53361 -0.479795 -2.45013 4.33729 1 1
453 1 8.01811 11.5886 4.48258 -2.02201 -3.66019 0.274525 1 1
454 1 8.0238 13.3743 6.25287 -4.6098 2.2519 -2.80327 1 1
455 1 9.78857 11.6063 6.28116 4.01936 -2.49232 5.76439 1 1
456 1 9.83252 13.3381 4.44472 4.20864 0.354778 8.4385 1 1
457 1 10.7013 10.7352 3.59407 -2.77339 0.224457 6.6125 1 1
458 1 10.6932 12.46 5.36754 2.31225 -1.27853 -0.405935 1 1
459 1 12.4862 10.6811 5.40108 -6.53962 2.9949 2.12369 1 1
460 1 12.4829 12.4115 3.55866 -1.98883 2.41047 1.16421 1 1
461 1 11.5929 11.5927 4.48947 2.10231 7.66893 -5.30029 1 1
462 1 11.5689 13.3897 6.25054 8.56357 1.9027 0.311496 1 1
463 1 13.3522 11.6156 6.29328 2.61915 -4.88144 -2.80993 1 1
464 1 13.3981 13.3279 4.50533 6.20701 2.40059 5.88788 1 1
465 1 14.2674 10.655 3.54256 10.5975 1.799 -0.508787 1 1
466 1 14.3137 12.4645 5.40477 1.55217 -5.11431 2.55464 1 1
467 1 16.0807 10.6814 5.3827 -5.24363 4.39945 5.27505 1 1
468 1 16.0872 12.5057 3.54769 0.173899 1.46022 -3.14412 1 1
469 1 15.2002 11.5781 4.45701 4.00135 -1.38612 2.61798 1 1
470 1 15.1666 13.3535 6.29844 14.1423 -0.745798 -3.45022 1 1
471 1 16.9548 11.5712 6.28619 2.16025 0.201939 7.11335 1 1
472 1 16.8861 13.3778 4.53331 -3.92488 -0.921116 -4.02702 1 1
473 1 17.8344 10.6986 3.5623 -2.59518 4.85046 4.61671 1 1
474 1 17.8545 12.5068 5.42074 5.62191 4.60474 -5.53232 1 1
475 1 19.5823 10.7444 5.34749 -0.985428 -1.4043 -2.29101 1 1
476 1 19.5643 12.4861 3.57698 4.2693 4.26562 7.31774 1 1
477 1 18.6866 11.6427 4.50162 0.323294 -2.40037 5.45521 1 1
478 1 18.7287 13.3832 6.31301 4.72926 -5.04677 5.79156 1 1
479 1 20.4683 11.5795 6.27173 -1.65938 -8.12936 -4.2979 1 1
480 1 20.4389 13.3626 4.48371 2.15554 0.359198 3.42345 1 1
481 1 21.3915 14.283 3.58257 5.05814 -0.41113 1.82973 1 1
482 1 0.0141115 16.0125 5.42032 -1.60492 1.91236 6.64071 1 1
483 1 1.82122 14.225 5.39242 -4.15809 1.44629 4.20031 1 1
484 1 1.81024 16.0496 3.57753 3.1565 11.1218 -2.74964 1 1
485 1 0.871897 15.1092 4.53541 1.01874 1.57371 2.97469 1 1
486 1 0.926322 16.9462 6.29466 -3.25955 7.23971 4.87981 1 1
487 1 2.71968 15.1542 6.2932 7.35421 0.72325 5.92773 1 1
488 1 2.63693 16.9502 4.48479 -1.27358 -1.47472 0.904056 1 1
489 1 3.55687 14.2821 3.54828 0.303444 4.56606 1.65671 1 1
490 1 3.58458 16.0546 5.36772 7.39149 2.25132 -3.70901 1 1
491 1 5.34594 14.2803 5.37453 3.38866 5.22289 0.34807 1 1
492 1 5.35756 16.0196 3.51172 -8.72909 7.58369 -1.92969 1 1
493 1 4.45697 15.1601 4.46692 -5.9183 5.25094 -0.0949386 1 1
494 1 4.45559 16.8981 6.25428 4.63482 -0.376614 4.7195 1 1
495 1 6.22796 15.1251 6.22408 2.84105 6.96207 1.91845 1 1
496 1 6.27596 16.9289 4.45996 2.02323 9.85911 -2.13934 1 1
497 1 7.16761 14.2699 3.56611 -2.29878 1.68965 -7.32789 1 1
498 1 7.13934 16.037 5.36357 1.99048 5.80763 0.139437 1 1
499 1 8.9531 14.242 5.35868 -6.50169 -4.3511 -1.5569 1 1
500 1 8.92509 16.0296 3.57525 -0.16089 0.179319 -5.40702 1 1
501 1 8.0508 15.15 4.43855 2.56573 7.38151 1.43695 1 1
502 1 8.04224 16.9071 6.25014 -4.44565 -3.92486 0.282161 1 1
503 1 9.76421 15.1546 6.26188 0.539539 -8.33778 -0.968185 1 1
504 1 9.7959 16.9862 4.45078 -7.82931 -7.54695 3.32481 1 1
505 1 10.7525 14.267 3.5416 -1.34533 -2.82792 3.97357 1 1
506 1 10.6968 16.0402 5.36151 -10.0967 -1.19193 -7.31928 1 1
507 1 12.4799 14.2518 5.38696 3.10365 0.173053 0.0928222 1 1
508 1 12.5107 16.044 3.55536 0.792652 1.01448 -4.44944 1 1
509 1 11.5747 15.1412 4.47515 2.63296 -0.587202 1.1589 1 1
510 1 11.5632 16.9406 6.29385 -5.43792 0.163509 -5.20823 1 1
511 1 13.3533 15.1349 6.27886 -0.170575 -3.70034 1.8123 1 1
512 1 13.3888 16.9293 4.4768 1.72194 4.32255 2.06231 1 1
513 1 14.271 14.2488 3.5174 -4.34294 -2.46243 -10.5385 1 1
514 1 14.2332 16.0288 5.37373 8.58238 7.62371 1.16904 1 1
515 1 16.0306 14.2617 5.40996 -1.01758 7.59252 0.914362 1 1
516 1 16.0237 16.0721 3.57251 1.24605 6.49492 -13.0741 1 1
517 1 15.1598 15.1504 4.46676 11.7313 -1.70736 -4.90514 1 1
518 1 15.1623 16.9029 6.29634 5.99673 0.751482 -0.9075 1 1
519 1 16.8909 15.148 6.311 -1.92523 6.93051 3.17002 1 1
520 1 16.9742 16.9314 4.50417 -1.5784 12.2779 3.02616 1 1
521 1 17.8216 14.2752 3.59706 -3.54042 8.51856 4.43065 1 1
522 1 17.8152 16.0381 5.40537 -3.63111 -4.16239 2.40793 1 1
523 1 19.6134 14.2658 5.43987 -3.09798 -7.62829 -4.46704 1 1
524 1 19.6749 16.0724 3.58432 9.32699 0.912452 4.01936 1 1
525 1 18.7175 15.1519 4.50154 0.00466353 -1.75766 3.43806 1 1
526 1 18.7145 16.9595 6.28295 -2.43892 -5.37036 -2.66454 1 1
527 1 20.4871 15.1886 6.34701 -4.00892 -3.37723 1.82916 1 1
528 1 20.5255 16.9908 4.47941 3.81702 6.29354 4.45499 1 1
529 1 0.04987 17.8417 3.57253 0.856004 -2.77452 2.87542 1 1
530 1 21.3915 19.6334 5.33436 12.5958 3.75262 -5.2117 1 1
531 1 1.79836 17.8384 5.40106 -0.181478 -9.31966 -0.688256 1 1
532 1 1.81717 19.6313 3.58244 1.4229 3.14898 3.07346 1 1
533 1 0.884146 18.7562 4.44686 -2.96481 0.458576 -4.52497 1 1
534 1 0.83283 20.5005 6.29679 3.89612 4.09313 8.35504 1 1
535 1 2.68031 18.7244 6.31767 -1.87511 -5.03104 -4.18604 1 1
536 1 2.68699 20.5667 4.49808 2.96843 3.46849 2.85478 1 1
537 1 3.53197 17.8474 3.586 0.284784 -0.287865 -5.1783 1 1
538 1 3.54162 19.6553 5.39724 -2.27512 3.83755 0.0177031 1 1
539 1 5.3672 17.7804 5.35548 4.72099 6.32642 -0.842418 1 1
540 1 5.3365 19.597 3.57181 -1.4502 4.23742 -3.45829 1 1
541 1 4.43486 18.7134 4.49172 -0.545703 7.06715 -7.24765 1 1
542 1 4.42424 20.4875 6.3057 -0.710405 -0.24303 5.3266 1 1
543 1 6.26088 18.7169 6.26481 -7.00022 -1.20358 4.92067 1 1
544 1 6.24223 20.5351 4.47938 6.20262 -3.93497 -3.18285 1 1
545 1 7.16961 17.8157 3.55582 5.38665 -3.51757 1.7185 1 1
546 1 7.12191 19.6356 5.35632 -9.27125 4.17164 -8.38001 1 1
547 1 8.90765 17.8458 5.38324 0.11757 -2.23586 0.675011 1 1
548 1 8.90349 19.641 3.62505 -7.56573 2.32585 5.27966 1 1
549 1 8.01505 18.7169 4.50299 -6.06082 -1.09862 7.43326 1 1
550 1 7.99028 20.5017 6.30709 -9.00096 -6.48128 4.79778 1 1
551 1 9.78946 18.7472 6.28087 -5.03955 8.24549 1.14788 1 1
552 1 9.79782 20.5324 4.50516 0.180713 -4.12019 2.81047 1 1
553 1 10.6923 17.8474 3.59693 3.1024 -1.88007 -5.63576 1 1
554 1 10.6653 19.6016 5.35191 2.17028 -0.78611 -3.8321 1 1
555 1 12.4702 17.8429 5.38855 3.75424 2.91977 4.87462 1 1
556 1 12.5256 19.5964 3.61063 1.19257 -6.03482 1.6098 1 1