ITEM: TIMESTEP
400
ITEM: NUMBER OF ATOMS
2953
ITEM: BOX BOUNDS pp pp mm
0.0000000000000000e+00 2.1394294200000001e+01
0.0000000000000000e+00 2.1394294200000001e+01
-4.4571446250000002e-01 5.3485735500000004e+01
ITEM: ATOMS id type x y z vx vy vz v_is_diamond c_structure_type
1 1 0 0 0 0 0 0 1 3
2 1 21.3754 1.82025 1.75989 -8.28197 3.64898 -0.614176 1 1
3 1 1.78048 0.0153868 1.80958 -3.44298 -0.941446 -2.3121 1 1
4 1 1.78286 1.78286 0 0 0 0 1 3
5 1 0.891429 0.891429 0.891429 0 0 0 1 2
6 1 0.914034 2.68344 2.68142 0.136567 -8.57708 11.5142 1 1
7 1 2.6895 0.925967 2.65854 8.04309 -10.4795 3.24541 1 1
8 1 2.67429 2.67429 0.891429 0 0 0 1 2
9 1 3.56572 0 0 0 0 0 1 3
10 1 3.56543 1.81782 1.78725 -2.26692 -2.75017 3.80786 1 1
11 1 5.33112 0.0487354 1.81239 8.52655 0.864721 -11.1013 1 1
12 1 5.34857 1.78286 0 0 0 0 1 3
13 1 4.45714 0.891429 0.891429 0 0 0 1 2
14 1 4.43515 2.67274 2.68526 -3.51713 9.2955 -12.9802 1 1
15 1 6.19172 0.931384 2.69362 0.793935 -1.98016 6.18686 1 1
16 1 6.24 2.67429 0.891429 0 0 0 1 2
17 1 7.13143 0 0 0 0 0 1 3
18 1 7.07308 1.80349 1.79883 2.93498 2.58037 5.15485 1 1
19 1 8.90085 21.3576 1.76871 0.123744 -4.87694 8.03526 1 1
20 1 8.91429 1.78286 0 0 0 0 1 3
21 1 8.02286 0.891429 0.891429 0 0 0 1 2
22 1 7.99318 2.67138 2.68212 6.84602 2.65605 6.67396 1 1
23 1 9.79389 0.881921 2.64832 4.94324 1.63014 2.11642 1 1
24 1 9.80572 2.67429 0.891429 0 0 0 1 2
25 1 10.6971 0 0 0 0 0 1 3
26 1 10.6847 1.78932 1.77917 -1.77574 4.70421 2.89143 1 1
27 1 12.4931 21.3891 1.79813 6.52568 0.429401 -4.03841 1 1
28 1 12.48 1.78286 0 0 0 0 1 3
29 1 11.5886 0.891429 0.891429 0 0 0 1 2
30 1 11.596 2.6989 2.67362 9.85764 3.60832 2.9864 1 1
31 1 13.4033 0.884984 2.72335 -5.11608 5.51973 -7.56746 1 1
32 1 13.3714 2.67429 0.891429 0 0 0 1 2
33 1 14.2629 0 0 0 0 0 1 3
34 1 14.2451 1.74192 1.78902 7.06878 -1.13103 -6.13101 1 1
35 1 16.051 21.3796 1.81054 2.52384 -3.19425 -5.18958 1 1
36 1 16.0457 1.78286 0 0 0 0 1 3
37 1 15.1543 0.891429 0.891429 0 0 0 1 2
38 1 15.1327 2.6568 2.69191 -5.49255 -1.58601 -1.91102 1 1
39 1 16.9432 0.895875 2.69346 3.984 1.39185 3.01034 1 1
40 1 16.9371 2.67429 0.891429 0 0 0 1 2
41 1 17.8286 0 0 0 0 0 1 3
42 1 17.8171 1.77784 1.77455 4.72135 4.02908 6.96539 1 1
43 1 19.6545 0.0190716 1.83071 3.84722 -5.57569 7.8128 1 1
44 1 19.6114 1.78286 0 0 0 0 1 3
45 1 18.72 0.891429 0.891429 0 0 0 1 2
46 1 18.7204 2.67508 2.67852 -4.74406 -1.45581 0.816568 1 1
47 1 20.4896 0.964594 2.65906 -2.1615 0.163083 6.31012 1 1
48 1 20.5029 2.67429 0.891429 0 0 0 1 2
49 1 0 3.56572 0 0 0 0 1 3
50 1 0.0243126 5.35257 1.78684 -0.991182 -4.51813 4.32066 1 1
51 1 1.77877 3.58243 1.78177 -7.84682 -3.69351 1.02851 1 1
52 1 1.78286 5.34857 0 0 0 0 1 3
53 1 0.891429 4.45714 0.891429 0 0 0 1 2
54 1 0.917349 6.2364 2.70554 -1.52851 -0.364769 -2.35735 1 1
55 1 2.66087 4.47837 2.72997 -5.41088 -0.14385 2.41912 1 1
56 1 2.67429 6.24 0.891429 0 0 0 1 2
57 1 3.56572 3.56572 0 0 0 0 1 3
58 1 3.57487 5.31647 1.7858 -1.81173 -1.39369 0.987882 1 1
59 1 5.33756 3.56575 1.80419 4.07647 -1.47749 -0.0688803 1 1
60 1 5.34857 5.34857 0 0 0 0 1 3
61 1 4.45714 4.45714 0.891429 0 0 0 1 2
62 1 4.49282 6.22454 2.66745 -0.223181 -3.79853 0.288238 1 1
63 1 6.24692 4.461 2.69376 -1.72785 -4.07615 -0.704104 1 1
64 1 6.24 6.24 0.891429 0 0 0 1 2
65 1 7.13143 3.56572 0 0 0 0 1 3
66 1 7.1275 5.32924 1.79504 3.33611 -4.77923 5.93061 1 1
67 1 8.90326 3.55674 1.83277 -4.93494 -6.14534 -4.40129 1 1
68 1 8.91429 5.34857 0 0 0 0 1 3
69 1 8.02286 4.45714 0.891429 0 0 0 1 2
70 1 8.01961 6.25033 2.68865 -1.46951 1.89277 -0.261826 1 1
71 1 9.81246 4.45998 2.69804 -0.446565 0.756586 1.2474 1 1
72 1 9.80572 6.24 0.891429 0 0 0 1 2
73 1 10.6971 3.56572 0 0 0 0 1 3
74 1 10.7287 5.3372 1.81053 -0.272773 4.448 -4.87996 1 1
75 1 12.5 3.57379 1.78218 5.04902 3.40256 0.316535 1 1
76 1 12.48 5.34857 0 0 0 0 1 3
77 1 11.5886 4.45714 0.891429 0 0 0 1 2
78 1 11.5448 6.30009 2.73928 0.749647 -1.10681 0.547755 1 1
79 1 13.371 4.43951 2.71018 -2.47156 2.69406 5.88743 1 1
80 1 13.3714 6.24 0.891429 0 0 0 1 2
81 1 14.2629 3.56572 0 0 0 0 1 3
82 1 14.2709 5.36641 1.78595 -2.05805 -1.20926 4.92927 1 1
83 1 16.0164 3.54831 1.81019 -0.267987 5.14293 0.598946 1 1
84 1 16.0457 5.34857 0 0 0 0 1 3
85 1 15.1543 4.45714 0.891429 0 0 0 1 2
86 1 15.1762 6.22853 2.65712 -6.90535 6.74846 -1.68607 1 1
87 1 16.9648 4.40112 2.68975 -2.37665 1.52742 6.41201 1 1
88 1 16.9371 6.24 0.891429 0 0 0 1 2
89 1 17.8286 3.56572 0 0 0 0 1 3
90 1 17.796 5.32753 1.77507 1.54304 -6.43818 -0.246373 1 1
91 1 19.6013 3.55738 1.74842 0.0797326 3.01795 1.31478 1 1
92 1 19.6114 5.34857 0 0 0 0 1 3
93 1 18.72 4.45714 0.891429 0 0 0 1 2
94 1 18.7113 6.22276 2.68675 -9.95614 -0.0627256 10.1405 1 1
95 1 20.5145 4.44124 2.71437 -2.83742 6.28647 -5.13809 1 1
96 1 20.5029 6.24 0.891429 0 0 0 1 2
97 1 0 7.13143 0 0 0 0 1 3
98 1 0.0281515 8.91654 1.79544 -7.19745 6.06769 7.20649 1 1
99 1 1.78206 7.12068 1.78474 -1.69372 4.017 -0.729304 1 1
100 1 1.78286 8.91429 0 0 0 0 1 3
101 1 0.891429 8.02286 0.891429 0 0 0 1 2
102 1 0.891394 9.80198 2.71419 0.951117 2.67177 5.54905 1 1
103 1 2.70427 8.04306 2.62479 -2.28514 10.3612 -3.32731 1 1
104 1 2.67429 9.80572 0.891429 0 0 0 1 2
105 1 3.56572 7.13143 0 0 0 0 1 3
106 1 3.55375 8.88842 1.7437 1.59747 10.16 -4.47587 1 1
107 1 5.39155 7.1241 1.79553 1.22778 3.78062 -6.84681 1 1
108 1 5.34857 8.91429 0 0 0 0 1 3
109 1 4.45714 8.02286 0.891429 0 0 0 1 2
110 1 4.44546 9.77128 2.6309 -3.7938 -0.365061 -8.71882 1 1
111 1 6.2663 8.01603 2.72111 -2.46105 -5.99769 1.71529 1 1
112 1 6.24 9.80572 0.891429 0 0 0 1 2
113 1 7.13143 7.13143 0 0 0 0 1 3
114 1 7.13823 8.87215 1.76193 -2.30348 4.71133 -5.615 1 1
115 1 8.88317 7.13031 1.80801 -2.57237 1.95152 1.68731 1 1
116 1 8.91429 8.91429 0 0 0 0 1 3
117 1 8.02286 8.02286 0.891429 0 0 0 1 2
118 1 8.06987 9.8029 2.65905 -1.60467 -3.01357 -5.76538 1 1
119 1 9.75885 8.01489 2.68343 5.60277 4.13851 5.04529 1 1
120 1 9.80572 9.80572 0.891429 0 0 0 1 2
121 1 10.6971 7.13143 0 0 0 0 1 3
122 1 10.6788 8.89782 1.81242 8.06068 -1.69117 2.31395 1 1
123 1 12.4719 7.10606 1.79157 -2.7369 2.32627 -8.03732 1 1
124 1 12.48 8.91429 0 0 0 0 1 3
125 1 11.5886 8.02286 0.891429 0 0 0 1 2
126 1 11.5957 9.77681 2.74158 4.01888 -5.46444 -0.937346 1 1
127 1 13.3666 8.02244 2.70035 -6.12711 4.68195 -1.82225 1 1
128 1 13.3714 9.80572 0.891429 0 0 0 1 2
129 1 14.2629 7.13143 0 0 0 0 1 3
130 1 14.256 8.90093 1.80109 -6.03396 1.18026 6.87175 1 1
131 1 16.0518 7.13335 1.7913 -6.56612 2.16445 3.09446 1 1
132 1 16.0457 8.91429 0 0 0 0 1 3
133 1 15.1543 8.02286 0.891429 0 0 0 1 2
134 1 15.1601 9.78008 2.71191 6.7704 0.0420547 3.32074 1 1
135 1 16.932 8.03929 2.73031 -10.0912 1.32853 8.27971 1 1
136 1 16.9371 9.80572 0.891429 0 0 0 1 2
137 1 17.8286 7.13143 0 0 0 0 1 3
138 1 17.8186 8.91025 1.82388 -3.47401 -6.31488 1.67405 1 1
139 1 19.5754 7.14197 1.78896 -6.92709 -1.10066 -1.50018 1 1
140 1 19.6114 8.91429 0 0 0 0 1 3
141 1 18.72 8.02286 0.891429 0 0 0 1 2
142 1 18.7539 9.78877 2.67223 3.85308 14.1915 -4.56898 1 1
143 1 20.4869 8.0388 2.68099 2.79574 1.75706 -2.86195 1 1
144 1 20.5029 9.80572 0.891429 0 0 0 1 2
145 1 0 10.6971 0 0 0 0 1 3
146 1 21.3808 12.5224 1.85553 -4.16154 -0.949582 1.32353 1 1
147 1 1.7713 10.7125 1.78458 0.325942 -4.62245 -2.90681 1 1
148 1 1.78286 12.48 0 0 0 0 1 3
149 1 0.891429 11.5886 0.891429 0 0 0 1 2
150 1 0.895762 13.4059 2.71971 1.72524 1.59192 -2.80644 1 1
151 1 2.66652 11.5924 2.68264 5.53247 2.01106 3.40628 1 1
152 1 2.67429 13.3714 0.891429 0 0 0 1 2
153 1 3.56572 10.6971 0 0 0 0 1 3
154 1 3.55097 12.4875 1.83443 8.41738 -7.88198 6.12473 1 1
155 1 5.30445 10.6848 1.77358 -5.67666 5.31201 -4.05869 1 1
156 1 5.34857 12.48 0 0 0 0 1 3
157 1 4.45714 11.5886 0.891429 0 0 0 1 2
158 1 4.46389 13.4561 2.69757 1.46922 -4.42257 -1.22834 1 1
159 1 6.2639 11.6197 2.63505 2.75444 3.50771 17.0006 1 1
160 1 6.24 13.3714 0.891429 0 0 0 1 2
161 1 7.13143 10.6971 0 0 0 0 1 3
162 1 7.11739 12.4447 1.72291 7.03812 0.0215765 1.1074 1 1
163 1 8.92598 10.6912 1.78819 -6.09047 -1.0662 -1.01935 1 1
164 1 8.91429 12.48 0 0 0 0 1 3
165 1 8.02286 11.5886 0.891429 0 0 0 1 2
166 1 8.03186 13.37 2.65075 5.62062 2.523 -3.85349 1 1
167 1 9.81124 11.5751 2.66917 -3.43012 6.81502 1.72539 1 1
168 1 9.80572 13.3714 0.891429 0 0 0 1 2
169 1 10.6971 10.6971 0 0 0 0 1 3
170 1 10.7094 12.4759 1.71614 12.1364 -1.63072 3.89468 1 1
171 1 12.4565 10.7039 1.77809 3.34414 3.28471 -0.46978 1 1
172 1 12.48 12.48 0 0 0 0 1 3
173 1 11.5886 11.5886 0.891429 0 0 0 1 2
174 1 11.6019 13.3603 2.65025 -3.96121 -2.80438 4.98185 1 1
175 1 13.3667 11.5542 2.6596 -1.97883 1.07986 -0.658252 1 1
176 1 13.3714 13.3714 0.891429 0 0 0 1 2
177 1 14.2629 10.6971 0 0 0 0 1 3
178 1 14.2603 12.4884 1.77894 -4.50745 7.05889 2.41258 1 1
179 1 16.0905 10.6876 1.77923 2.90102 1.8383 2.6754 1 1
180 1 16.0457 12.48 0 0 0 0 1 3
181 1 15.1543 11.5886 0.891429 0 0 0 1 2
182 1 15.1608 13.3448 2.6362 -1.39963 -4.16854 -2.52354 1 1
183 1 16.9757 11.5723 2.69519 -7.94374 -4.43009 -2.43853 1 1
184 1 16.9371 13.3714 0.891429 0 0 0 1 2
185 1 17.8286 10.6971 0 0 0 0 1 3
186 1 17.8381 12.4875 1.78822 6.89487 0.703746 0.268871 1 1
187 1 19.6338 10.7058 1.7842 -5.88891 -1.38636 0.499857 1 1
188 1 19.6114 12.48 0 0 0 0 1 3
189 1 18.72 11.5886 0.891429 0 0 0 1 2
190 1 18.7058 13.3663 2.71236 -5.54065 2.50275 6.99605 1 1
191 1 20.5011 11.623 2.70389 2.49321 -7.7525 0.709751 1 1
192 1 20.5029 13.3714 0.891429 0 0 0 1 2
193 1 0 14.2629 0 0 0 0 1 3
194 1 21.392 16.089 1.73083 -0.903913 3.28503 2.29704 1 1
195 1 1.79097 14.2564 1.80441 -7.36748 3.91565 2.38424 1 1
196 1 1.78286 16.0457 0 0 0 0 1 3
197 1 0.891429 15.1543 0.891429 0 0 0 1 2
198 1 0.914594 16.9548 2.63438 13.1851 3.4263 2.94184 1 1
199 1 2.67264 15.1712 2.68111 1.37084 -0.280157 5.03858 1 1
200 1 2.67429 16.9371 0.891429 0 0 0 1 2
201 1 3.56572 14.2629 0 0 0 0 1 3
202 1 3.61301 16.0149 1.79801 -7.30104 -8.37005 1.2594 1 1
203 1 5.41001 14.2784 1.79234 -4.16284 3.91697 -4.83368 1 1
204 1 5.34857 16.0457 0 0 0 0 1 3
205 1 4.45714 15.1543 0.891429 0 0 0 1 2
206 1 4.46896 16.9584 2.67335 -4.30448 -3.88926 -5.52868 1 1
207 1 6.26637 15.1317 2.65415 2.34571 -2.6636 0.544197 1 1
208 1 6.24 16.9371 0.891429 0 0 0 1 2
209 1 7.13143 14.2629 0 0 0 0 1 3
210 1 7.14416 16.06 1.74235 -0.458428 -0.317247 3.55915 1 1
211 1 8.92558 14.251 1.78099 5.74948 -2.31639 2.30372 1 1
212 1 8.91429 16.0457 0 0 0 0 1 3
213 1 8.02286 15.1543 0.891429 0 0 0 1 2
214 1 8.03255 16.9583 2.61747 -1.68964 -6.97939 -3.96169 1 1
215 1 9.8051 15.1506 2.65031 8.01855 0.740354 -2.78531 1 1
216 1 9.80572 16.9371 0.891429 0 0 0 1 2
217 1 10.6971 14.2629 0 0 0 0 1 3
218 1 10.6916 16.0636 1.81824 -2.08812 1.43819 -0.0680162 1 1
219 1 12.4793 14.2798 1.78532 -3.46869 -1.96525 12.6417 1 1
220 1 12.48 16.0457 0 0 0 0 1 3
221 1 11.5886 15.1543 0.891429 0 0 0 1 2
222 1 11.6043 16.9812 2.66483 -0.0358867 -6.86303 2.70562 1 1
223 1 13.3848 15.1433 2.67426 -1.20056 8.0958 8.75869 1 1
224 1 13.3714 16.9371 0.891429 0 0 0 1 2
225 1 14.2629 14.2629 0 0 0 0 1 3
226 1 14.2524 16.0744 1.7651 1.85928 3.01996 3.58231 1 1
227 1 16.0354 14.2258 1.8027 0.273493 4.65164 5.7523 1 1
228 1 16.0457 16.0457 0 0 0 0 1 3
229 1 15.1543 15.1543 0.891429 0 0 0 1 2
230 1 15.1537 16.9142 2.70662 -2.81876 3.08818 -0.353728 1 1
231 1 16.9379 15.2169 2.68934 -0.731706 -1.51598 -2.55556 1 1
232 1 16.9371 16.9371 0.891429 0 0 0 1 2
233 1 17.8286 14.2629 0 0 0 0 1 3
234 1 17.7956 16.0598 1.7721 1.91453 -5.72399 -0.572158 1 1
235 1 19.6281 14.3084 1.79439 0.410827 -5.83831 9.24858 1 1
236 1 19.6114 16.0457 0 0 0 0 1 3
237 1 18.72 15.1543 0.891429 0 0 0 1 2
238 1 18.7443 16.9416 2.64606 9.61557 -4.85873 -0.475577 1 1
239 1 20.5294 15.1713 2.65851 -7.31821 4.45188 -0.270379 1 1
240 1 20.5029 16.9371 0.891429 0 0 0 1 2
241 1 0 17.8286 0 0 0 0 1 3
242 1 0.0300916 19.6495 1.75313 -3.33324 8.5074 1.2226 1 1
243 1 1.78972 17.8179 1.82239 4.14387 -3.89742 2.12649 1 1
244 1 1.78286 19.6114 0 0 0 0 1 3
245 1 0.891429 18.72 0.891429 0 0 0 1 2
246 1 0.900593 20.5435 2.71059 9.08332 -2.76826 -3.39353 1 1
247 1 2.68064 18.7538 2.68683 -0.433633 -4.2467 -0.997991 1 1
248 1 2.67429 20.5029 0.891429 0 0 0 1 2
249 1 3.56572 17.8286 0 0 0 0 1 3
250 1 3.55432 19.6182 1.73064 3.2979 1.36484 4.51886 1 1
251 1 5.36034 17.8612 1.79499 0.200195 -1.23491 -0.846028 1 1
252 1 5.34857 19.6114 0 0 0 0 1 3
253 1 4.45714 18.72 0.891429 0 0 0 1 2
254 1 4.39238 20.5348 2.68625 -9.82371 0.981423 -2.56693 1 1
255 1 6.2594 18.6911 2.67524 -3.39355 -2.9596 5.01044 1 1
256 1 6.24 20.5029 0.891429 0 0 0 1 2
257 1 7.13143 17.8286 0 0 0 0 1 3
258 1 7.13066 19.5842 1.789 5.65275 0.351796 1.12645 1 1
259 1 8.89026 17.8572 1.79177 4.65195 -3.60165 -10.3954 1 1
260 1 8.91429 19.6114 0 0 0 0 1 3
261 1 8.02286 18.72 0.891429 0 0 0 1 2
262 1 8.01565 20.5043 2.70402 -15.8274 0.0297591 6.85264 1 1
263 1 9.81014 18.7481 2.6718 -0.678575 -0.751129 -6.7425 1 1
264 1 9.80572 20.5029 0.891429 0 0 0 1 2
265 1 10.6971 17.8286 0 0 0 0 1 3
266 1 10.7335 19.6048 1.79809 5.1421 -9.50318 -1.14062 1 1
267 1 12.5104 17.8784 1.7847 7.25282 -8.65305 1.74152 1 1
268 1 12.48 19.6114 0 0 0 0 1 3
269 1 11.5886 18.72 0.891429 0 0 0 1 2
270 1 11.578 20.5121 2.73399 1.58874 -1.79713 2.03522 1 1
271 1 13.3634 18.7318 2.6929 -2.19545 -5.26224 1.80856 1 1
272 1 13.3714 20.5029 0.891429 0 0 0 1 2
273 1 14.2629 17.8286 0 0 0 0 1 3
274 1 14.2728 19.5886 1.80406 2.81172 2.39845 2.68724 1 1
275 1 16.0596 17.8119 1.80102 -3.62192 -0.157068 3.31761 1 1
276 1 16.0457 19.6114 0 0 0 0 1 3
277 1 15.1543 18.72 0.891429 0 0 0 1 2
278 1 15.1888 20.5062 2.69418 -2.40235 -5.90109 3.46598 1 1
279 1 16.9842 18.698 2.69495 -5.06931 0.753425 4.48949 1 1
280 1 16.9371 20.5029 0.891429 0 0 0 1 2
281 1 17.8286 17.8286 0 0 0 0 1 3
282 1 17.8362 19.6164 1.78674 -0.152048 2.03188 -0.710489 1 1
283 1 19.6113 17.8797 1.75834 1.36844 3.23828 1.40974 1 1
284 1 19.6114 19.6114 0 0 0 0 1 3
285 1 18.72 18.72 0.891429 0 0 0 1 2
286 1 18.72 20.5479 2.67373 4.66172 -1.55589 2.27261 1 1
287 1 20.5303 18.7262 2.67107 -0.367228 -4.30751 0.255976 1 1
288 1 20.5029 20.5029 0.891429 0 0 0 1 2
289 1 0.0445332 0.0202535 3.61403 -0.336261 -5.15463 9.02932 1 1
290 1 21.3719 1.7933 5.37693 3.5939 -2.70002 4.10312 1 1
291 1 1.76648 0.00969651 5.39018 8.17914 -9.7993 2.14249 1 1
292 1 1.79473 1.7886 3.5894 0.199334 8.32825 -3.44656 1 1
293 1 0.90292 0.949456 4.50257 -2.92018 3.36431 4.4116 1 1
294 1 0.890233 2.66503 6.31208 -0.696994 -0.810356 -6.75938 1 1
295 1 2.63156 0.880419 6.29616 -7.44074 8.29502 2.64612 1 1
296 1 2.70211 2.68075 4.51434 -3.95582 -5.30252 2.72092 1 1
297 1 3.50434 0.0310012 3.54485 -3.70786 -2.33884 -5.12988 1 1
298 1 3.54726 1.76932 5.4253 7.55261 2.76013 -2.47697 1 1
299 1 5.27703 21.3528 5.38585 -4.09135 2.32633 -7.54026 1 1
300 1 5.3359 1.80935 3.60718 8.00762 -3.47801 0.0653889 1 1
301 1 4.46148 0.869493 4.47318 0.0852392 7.91819 10.9343 1 1
302 1 4.40519 2.6581 6.31313 3.19511 -9.26918 4.55913 1 1
303 1 6.22893 0.874718 6.28389 3.48322 -0.0394232 0.522281 1 1
304 1 6.25665 2.64099 4.51542 0.655293 2.68895 6.67963 1 1
305 1 7.11067 0.00241405 3.5821 -0.842138 1.31331 -3.30558 1 1
306 1 7.11517 1.78228 5.4041 -3.47673 -1.81898 2.68527 1 1
307 1 8.86637 0.026286 5.41026 -5.11663 -2.25115 1.09042 1 1
308 1 8.90807 1.76972 3.56192 6.61249 8.52601 4.33766 1 1
309 1 7.99159 0.886091 4.44147 7.89327 0.42078 8.26146 1 1
310 1 8.07105 2.66318 6.28789 3.66506 -0.380103 2.24009 1 1
311 1 9.77585 0.847209 6.31713 -3.03878 1.18221 -1.83827 1 1
312 1 9.80543 2.67793 4.45456 -1.9514 1.41129 5.96674 1 1
313 1 10.6554 0.0187964 3.57354 1.13481 -3.45884 1.88578 1 1
314 1 10.6385 1.79418 5.35391 5.0383 -4.07228 3.58276 1 1
315 1 12.4365 21.3608 5.34851 -3.704 0.37364 6.78077 1 1
316 1 12.4428 1.77233 3.56127 -3.24487 -0.312547 -1.62194 1 1
317 1 11.5295 0.880524 4.44649 1.33841 5.1569 1.4499 1 1
318 1 11.5826 2.66433 6.31989 3.08781 -0.897756 2.45965 1 1
319 1 13.3437 0.893891 6.27308 4.1223 -3.77948 6.49772 1 1
320 1 13.3776 2.64745 4.46708 2.45826 2.03032 -0.875254 1 1
321 1 14.261 21.3928 3.55934 5.60113 -4.23975 -1.58302 1 1
322 1 14.283 1.7608 5.38307 8.137 1.58343 -5.16789 1 1
323 1 16.0195 21.38 5.33365 -1.92056 4.86838 0.284923 1 1
324 1 16.0785 1.77697 3.55844 -4.55892 9.98362 3.2532 1 1
325 1 15.1799 0.91111 4.46214 -0.287113 3.26354 -1.66982 1 1
326 1 15.1367 2.67232 6.27818 -3.42866 -1.35523 2.76908 1 1
327 1 16.9119 0.858346 6.27117 5.57324 2.38804 5.85874 1 1
328 1 16.9143 2.67181 4.48184 -5.03179 9.65851 2.15656 1 1
329 1 17.8462 21.3915 3.54706 -3.84843 4.72507 0.786452 1 1
330 1 17.846 1.72521 5.38396 -0.213292 -2.88254 -5.74647 1 1
331 1 19.6026 21.3911 5.36662 -0.54808 5.0968 -8.69851 1 1
332 1 19.6092 1.787 3.55976 1.2081 0.100921 -6.12804 1 1
333 1 18.7359 0.902501 4.51101 -5.71188 0.691232 7.80569 1 1
334 1 18.695 2.67232 6.27889 9.29886 7.72153 2.11845 1 1
335 1 20.4854 0.889158 6.27537 -5.02702 -1.35101 5.43238 1 1
336 1 20.4855 2.65489 4.48362 -0.492149 2.54734 8.77772 1 1
337 1 0.0262462 3.55868 3.5996 6.4426 0.289568 3.40332 1 1
338 1 0.0515649 5.34928 5.38473 -1.88872 2.25586 -2.69195 1 1
339 1 1.78917 3.55659 5.3879 5.44716 0.131165 -0.727887 1 1
340 1 1.79436 5.35009 3.58681 -3.12394 -6.62518 -1.66383 1 1
341 1 0.917883 4.41748 4.4807 5.08545 2.97087 -0.550318 1 1
342 1 0.912766 6.2232 6.25698 -1.39419 -5.87825 10.114 1 1
343 1 2.68169 4.45302 6.29001 -2.35915 -1.76888 1.0909 1 1
344 1 2.7326 6.29866 4.47182 4.14283 0.498861 2.92641 1 1
345 1 3.59044 3.56796 3.63318 2.41639 -2.45444 -14.8608 1 1
346 1 3.64311 5.37698 5.41891 0.305695 -3.25678 0.786747 1 1
347 1 5.33606 3.56044 5.40272 -2.41749 4.41233 2.01729 1 1
348 1 5.35691 5.32839 3.58009 6.85834 1.09951 -0.476535 1 1
349 1 4.48897 4.46893 4.53239 -0.778857 1.88431 -6.09745 1 1
350 1 4.47934 6.27867 6.29906 2.35873 4.52179 -2.43015 1 1
351 1 6.26589 4.49007 6.26601 -3.90126 1.41858 -3.55788 1 1
352 1 6.25989 6.19748 4.48884 -4.21874 0.31232 0.705627 1 1
353 1 7.11979 3.58142 3.61018 6.42299 -0.310104 1.02692 1 1
354 1 7.15323 5.3641 5.36957 10.8445 2.00563 1.75632 1 1
355 1 8.93072 3.56996 5.38702 -0.334075 5.04115 2.80689 1 1
356 1 8.87355 5.36373 3.60543 0.239696 -0.386648 10.676 1 1
357 1 8.04744 4.48107 4.48557 -10.1697 1.85668 7.87551 1 1
358 1 8.04012 6.23299 6.3078 -1.93669 5.89929 3.35682 1 1
359 1 9.8004 4.44935 6.33126 1.67068 -2.07666 3.57171 1 1
360 1 9.78493 6.24208 4.47485 -2.93978 3.16 -3.48718 1 1
361 1 10.7531 3.55766 3.58887 0.892389 -2.56677 -1.88201 1 1
362 1 10.667 5.36588 5.38389 9.68055 0.167972 4.93775 1 1
363 1 12.4463 3.5341 5.42108 1.27361 -0.541928 -1.26438 1 1
364 1 12.4524 5.40339 3.57931 1.96171 13.8111 9.5182 1 1
365 1 11.5652 4.43463 4.5096 1.23631 3.03211 -4.33913 1 1
366 1 11.5341 6.21478 6.26626 -2.13079 5.31325 0.616618 1 1
367 1 13.3749 4.45841 6.292 -2.485 -1.03818 3.50558 1 1
368 1 13.3734 6.25992 4.51639 1.88898 -5.59235 4.1903 1 1
369 1 14.1994 3.54828 3.59191 3.81068 -3.50151 -0.387283 1 1
370 1 14.2349 5.34932 5.38753 -5.81412 -4.21978 -1.35993 1 1
371 1 16.0624 3.57362 5.42599 0.916715 1.05014 -2.81566 1 1
372 1 15.9997 5.3137 3.59116 1.29256 -1.05546 -1.35987 1 1
373 1 15.1466 4.4131 4.51571 -10.1179 0.0521971 -0.557784 1 1
374 1 15.1575 6.26344 6.33912 1.47143 -5.12348 -3.67731 1 1
375 1 16.9288 4.48232 6.31038 -3.59772 6.16337 -3.32208 1 1
376 1 16.932 6.20515 4.48765 -0.617954 7.12345 4.70604 1 1
377 1 17.8283 3.55243 3.5485 -1.0887 2.1751 -11.6608 1 1
378 1 17.816 5.35613 5.36709 -0.0343486 -6.83338 4.97448 1 1
379 1 19.5851 3.50472 5.34684 -1.85588 -2.24442 6.52824 1 1
380 1 19.6654 5.35373 3.58828 -9.39353 3.34734 4.76125 1 1
381 1 18.7464 4.46044 4.45559 1.04058 -1.0042 -6.00194 1 1
382 1 18.72 6.21231 6.24186 2.97313 -1.27236 8.19914 1 1
383 1 20.5133 4.40391 6.32558 0.87125 -0.302864 -3.00997 1 1
384 1 20.5605 6.22706 4.48054 9.75114 7.43701 6.08988 1 1
385 1 0.0432291 7.15669 3.62054 0.149189 5.26285 5.90264 1 1
386 1 21.3662 8.92572 5.39617 6.45977 -2.60901 2.47838 1 1
387 1 1.80049 7.12173 5.35599 2.69383 2.29576 2.56718 1 1
388 1 1.82295 8.91889 3.59544 4.369 3.38823 5.52742 1 1
389 1 0.910918 8.05343 4.47944 7.32324 3.92002 2.09103 1 1
390 1 0.877755 9.78084 6.26532 -0.478721 -1.39161 -3.83816 1 1
391 1 2.72495 8.01673 6.28161 2.09923 1.91713 2.28856 1 1
392 1 2.65117 9.78895 4.47605 3.95446 -4.17121 1.88315 1 1
393 1 3.60722 7.16834 3.59968 8.41017 5.81731 5.76357 1 1
394 1 3.56812 8.94697 5.38818 -0.70574 0.41687 -2.12626 1 1
395 1 5.35971 7.15111 5.36819 9.67278 -0.987767 2.03313 1 1
396 1 5.36581 8.90481 3.55658 4.4818 -3.00627 -4.04162 1 1
397 1 4.4843 8.01327 4.45261 -0.531797 -1.23305 4.41894 1 1
398 1 4.51962 9.776 6.26544 3.83616 4.37274 3.15999 1 1
399 1 6.25993 8.02149 6.26626 5.50447 -1.26279 4.5408 1 1
400 1 6.28318 9.80385 4.44593 7.71834 9.61055 2.2146 1 1
401 1 7.15755 7.09669 3.57661 0.317409 3.97136 -6.51546 1 1
402 1 7.1215 8.89743 5.37352 -9.50526 3.49068 2.13353 1 1
403 1 8.87919 7.12248 5.33171 2.11333 -0.709664 -3.4434 1 1
404 1 8.91443 8.92931 3.5968 0.110822 0.499988 5.61585 1 1
405 1 8.02828 8.03512 4.48785 -2.17306 -1.28345 0.163662 1 1
406 1 8.04104 9.82758 6.27606 -0.576728 5.0835 9.49876 1 1
407 1 9.79131 7.99634 6.25646 0.581745 -2.26303 -6.79384 1 1
408 1 9.82017 9.8076 4.50019 -2.00284 -1.96515 5.51587 1 1
409 1 10.672 7.16152 3.59779 12.9501 -2.01776 3.30515 1 1
410 1 10.7025 8.88259 5.37723 -3.06213 1.02699 4.40066 1 1
411 1 12.4586 7.13664 5.3792 -6.8695 -2.72047 3.37652 1 1
412 1 12.4798 8.93497 3.56544 -1.88199 3.48498 1.45423 1 1
413 1 11.5686 8.02631 4.45557 6.05262 2.71244 3.38674 1 1
414 1 11.5706 9.80441 6.2662 3.84197 2.56934 -1.49952 1 1
415 1 13.3641 7.99659 6.30082 -3.28942 6.22772 3.46849 1 1
416 1 13.3446 9.77244 4.47607 2.98041 7.70868 -0.685203 1 1
417 1 14.2661 7.10965 3.6102 1.65756 -3.2631 1.34498 1 1
418 1 14.2584 8.90205 5.38745 -1.16996 -3.21748 10.3238 1 1
419 1 16.0181 7.11667 5.41107 2.17613 -8.56303 -4.97303 1 1
420 1 16.0348 8.90331 3.62685 8.26595 -6.27989 -1.46013 1 1
421 1 15.1611 8.00442 4.49481 -5.70926 -2.74513 -1.63978 1 1
422 1 15.1521 9.823 6.2806 -5.67136 1.33739 4.18842 1 1
423 1 16.9493 8.01342 6.26392 -0.106725 -6.4733 -4.24917 1 1
424 1 16.9808 9.79985 4.50203 -0.40354 -0.313273 -4.71823 1 1
425 1 17.8467 7.03637 3.57225 -3.32875 6.3923 2.61845 1 1
426 1 17.8254 8.92987 5.34587 0.727355 5.54885 -6.9924 1 1
427 1 19.652 7.16862 5.39786 4.02091 -4.75837 1.63138 1 1
428 1 19.5882 8.9153 3.5672 5.20996 -6.59834 8.77151 1 1
429 1 18.7075 7.98335 4.49807 3.59376 -4.62397 0.103977 1 1
430 1 18.6981 9.8058 6.26575 0.891975 -5.49138 -5.28005 1 1
431 1 20.494 8.02527 6.28313 0.919566 -0.885383 -3.71879 1 1
432 1 20.4857 9.8264 4.47164 1.33584 1.87128 0.757638 1 1
433 1 0.00193374 10.7115 3.55782 -1.21737 -4.26937 -0.696536 1 1
434 1 21.3764 12.4727 5.35571 -2.90189 7.89151 -1.64924 1 1
435 1 1.80691 10.6987 5.3295 4.47048 -5.01658 -5.18034 1 1
436 1 1.76413 12.4847 3.59268 -3.02418 -8.10967 -3.37546 1 1
437 1 0.88596 11.5739 4.468 -0.246397 -5.21543 -6.29935 1 1
438 1 0.875718 13.3872 6.28514 -0.428371 5.00593 -2.50696 1 1
439 1 2.68271 11.5462 6.2195 -7.12064 3.58023 -2.58475 1 1
440 1 2.71977 13.3096 4.45614 7.44312 -5.32206 1.90235 1 1
441 1 3.56728 10.6964 3.59474 2.12135 3.25808 4.55634 1 1
442 1 3.64081 12.4568 5.35865 -3.84467 -4.60897 3.12598 1 1
443 1 5.36824 10.6856 5.36086 1.98577 5.88379 -6.63176 1 1
444 1 5.35052 12.4566 3.56232 -1.81122 2.70226 -2.02961 1 1
445 1 4.48613 11.5695 4.45501 8.00681 -1.36934 5.2594 1 1
446 1 4.47107 13.3885 6.25705 4.60731 8.64318 3.79722 1 1
447 1 6.29073 11.5778 6.25824 -8.3535 8.46924 -9.14589 1 1
448 1 6.23548 13.3536 4.47132 -1.16221 -0.0474797 2.59959 1 1
449 1 7.1215 10.7147 3.58383 -0.493668 11.5809 3.8991 1 1
450 1 7.1232 12.5202 5.36512 2.95585 0.95394 5.49143 1 1
451 1 8.91214 10.6755 5.36417 4.23868 -0.725702 4.14745 1 1
452 1 8.91718 12.4517 3.54263 -0.302434 -1.22371 5.95126 1 1
453 1 8.01475 11.5826 4.48162 -1.72474 -3.14222 -1.24837 1 1
454 1 8.0168 13.3782 6.24845 -3.31996 2.14877 -2.1985 1 1
455 1 9.79604 11.6008 6.29071 4.48569 -3.6971 5.06572 1 1
456 1 9.8392 13.3397 4.45926 3.27701 1.51685 8.11392 1 1
457 1 10.6968 10.7327 3.60552 -2.32171 -3.00946 6.37241 1 1
458 1 10.6978 12.4594 5.36708 2.90531 0.595207 -0.0308461 1 1
459 1 12.474 10.6871 5.40316 -7.22795 4.00197 0.155932 1 1
460 1 12.4804 12.4189 3.56163 -0.897105 6.04139 2.21814 1 1
461 1 11.5964 11.6045 4.48031 1.76741 5.6579 -5.04324 1 1
462 1 11.5837 13.3919 6.25241 8.26823 0.570409 1.80822 1 1
463 1 13.3587 11.6047 6.2875 4.65322 -7.47131 -3.68687 1 1
464 1 13.4082 13.3333 4.51322 5.19821 3.72757 3.08177 1 1
465 1 14.2851 10.6599 3.54423 9.52777 3.82544 2.44973 1 1
466 1 14.315 12.4554 5.40802 0.0948121 -5.09309 1.10765 1 1
467 1 16.0714 10.6901 5.39169 -5.2849 5.32796 4.95249 1 1
468 1 16.0853 12.5059 3.54401 -2.31152 -1.20848 -1.06024 1 1
469 1 15.2058 11.5754 4.46212 2.35177 -1.67737 3.1792 1 1
470 1 15.1915 13.3531 6.29281 13.9716 0.284137 -2.94913 1 1
471 1 16.9574 11.5734 6.29936 0.862225 2.25396 7.81926 1 1
472 1 16.8831 13.3773 4.52452 0.53568 0.361478 -5.96391 1 1
473 1 17.831 10.7067 3.57244 -1.23333 4.47177 6.85735 1 1
474 1 17.8614 12.5139 5.41082 2.2245 3.45888 -5.62332 1 1
475 1 19.5805 10.7399 5.34562 -0.997493 -3.85756 0.176565 1 1
476 1 19.573 12.494 3.59062 5.49822 4.58418 8.22397 1 1
477 1 18.6886 11.6363 4.50902 1.96091 -4.73248 2.93028 1 1
478 1 18.736 13.3764 6.3228 3.4757 -2.67942 5.16088 1 1
479 1 20.4671 11.5677 6.26497 0.314732 -5.34416 -3.36127 1 1
480 1 20.4456 13.3644 4.48972 5.49605 1.73166 3.39484 1 1
481 1 0.00530232 14.2813 3.58669 4.16485 -1.43809 2.85849 1 1
482 1 0.0108095 16.0186 5.43156 -2.16917 5.04321 6.17341 1 1
483 1 1.81351 14.2283 5.3999 -4.50303 2.34596 4.26977 1 1
484 1 1.81243 16.0681 3.57292 -0.610829 9.90677 -2.46323 1 1
485 1 0.875579 15.1141 4.53832 3.17556 4.04316 0.372132 1 1
486 1 0.920071 16.9577 6.30275 -3.77545 5.66988 4.34982 1 1
487 1 2.73097 15.1549 6.30255 5.42592 0.0557025 4.66564 1 1
488 1 2.63779 16.9474 4.48623 2.31785 -1.59975 0.726718 1 1
489 1 3.5579 14.29 3.55381 0.882022 4.33403 4.62986 1 1
490 1 3.59592 16.0573 5.36112 5.46925 0.931652 -3.68653 1 1
491 1 5.35146 14.2877 5.3731 2.88066 3.30774 -1.94261 1 1
492 1 5.34362 16.0343 3.51194 -7.08425 9.13356 2.1612 1 1
493 1 4.44683 15.1693 4.46592 -5.50855 5.30586 -1.06184 1 1
494 1 4.4657 16.8982 6.26327 6.87 0.620677 5.46581 1 1
495 1 6.23566 15.1384 6.22971 5.95069 8.18471 4.45197 1 1
496 1 6.27839 16.9447 4.45525 0.750134 8.18707 -3.17419 1 1
497 1 7.16194 14.2718 3.55304 -4.08287 0.432696 -7.46852 1 1
498 1 7.14334 16.0463 5.36264 2.51152 4.8112 -1.20027 1 1
499 1 8.93975 14.235 5.35517 -8.62022 -3.55537 -2.395 1 1
500 1 8.92453 16.0319 3.56412 -0.466899 2.43246 -7.26267 1 1
501 1 8.0546 15.1622 4.44269 1.67771 6.3578 3.13446 1 1
502 1 8.03392 16.9024 6.25135 -4.983 -1.33868 1.06704 1 1
503 1 9.76752 15.1402 6.25986 3.1333 -7.92719 -1.34792 1 1
504 1 9.78318 16.9705 4.45776 -6.61261 -10.1504 4.44528 1 1
505 1 10.7469 14.2607 3.54924 -4.93001 -4.40093 4.74504 1 1
506 1 10.6783 16.0389 5.34935 -10.9242 -0.424128 -6.50808 1 1
507 1 12.485 14.2521 5.38601 2.79518 0.153553 -1.14552 1 1
508 1 12.5109 16.0462 3.54888 -0.593933 1.49662 -2.76767 1 1
509 1 11.5816 15.1412 4.47617 5.17081 0.509184 -0.031708 1 1
510 1 11.5551 16.9403 6.2824 -3.85691 -0.556429 -7.77968 1 1
511 1 13.3544 15.1292 6.28204 1.5233 -2.74663 1.79133 1 1
512 1 13.3898 16.9378 4.4807 -0.536013 5.30144 2.39227 1 1
513 1 14.2641 14.2439 3.50235 -3.33436 -3.12546 -6.48056 1 1
514 1 14.2502 16.0416 5.37582 10.7559 6.81698 1.18957 1 1
515 1 16.0283 14.2747 5.41097 -1.37758 7.1639 0.195793 1 1
516 1 16.0278 16.0817 3.55233 3.4484 4.46566 -9.8281 1 1
517 1 15.1789 15.1474 4.45859 9.88557 -1.66844 -4.46152 1 1
518 1 15.1703 16.906 6.29233 3.12935 2.74995 -3.46378 1 1
519 1 16.8895 15.1614 6.31588 0.358752 8.36565 2.34433 1 1
520 1 16.9692 16.9521 4.50823 -4.01349 11.1658 1.6279 1 1
521 1 17.8152 14.2902 3.6049 -3.76041 8.50253 4.46535 1 1
522 1 17.8096 16.0313 5.40909 -2.78722 -3.39799 1.80137 1 1
523 1 19.6072 14.2535 5.43049 -3.91237 -6.42863 -6.14205 1 1
524 1 19.6882 16.0734 3.59052 5.75496 0.141521 3.11539 1 1
525 1 18.7185 15.1496 4.50794 1.11233 -0.857958 3.87358 1 1
526 1 18.7102 16.9502 6.27897 -2.38713 -5.24986 -1.80371 1 1
527 1 20.4813 15.1801 6.3473 -2.66974 -6.26826 -1.53311 1 1
528 1 20.5331 16.999 4.48758 4.82324 3.00756 4.89052 1 1
529 1 0.0491098 17.8373 3.57658 -1.63285 -2.1872 1.70558 1 1
530 1 0.0176563 19.6392 5.32771 10.6776 2.91399 -2.3017 1 1
531 1 1.79647 17.823 5.39886 -1.96893 -8.13461 -1.80185 1 1
532 1 1.81799 19.6381 3.58792 -0.430101 4.50706 3.08357 1 1
533 1 0.881787 18.756 4.44119 0.355862 -0.657462 -1.90681 1 1
534 1 0.843445 20.5074 6.30954 8.24517 3.59048 6.11582 1 1
535 1 2.6771 18.7152 6.30779 -1.8147 -5.40638 -7.04187 1 1
536 1 2.68959 20.5703 4.50241 -0.0111415 0.585262 2.09726 1 1
537 1 3.53414 17.8465 3.57702 2.17585 -0.718868 -5.0316 1 1
538 1 3.53898 19.6593 5.39739 -0.697231 0.705349 0.103064 1 1
539 1 5.37445 17.7936 5.35503 3.47892 8.80486 0.329101 1 1
540 1 5.3342 19.6055 3.56635 -1.19029 5.44038 -2.80258 1 1
541 1 4.43456 18.726 4.47904 0.196485 7.30156 -7.16658 1 1
542 1 4.42411 20.4877 6.31347 0.585561 0.448406 3.42145 1 1
543 1 6.24734 18.7153 6.27327 -8.33622 -0.457636 4.62382 1 1
544 1 6.251 20.5257 4.47372 3.62985 -6.66351 -3.34325 1 1
545 1 7.17718 17.8105 3.55973 3.20115 -2.42954 2.68037 1 1
546 1 7.10591 19.6416 5.3437 -8.94486 2.46959 -5.8721 1 1
547 1 8.90785 17.8413 5.38393 -0.00261563 -2.84409 0.164374 1 1
548 1 8.89122 19.644 3.63245 -6.4574 1.0615 3.15086 1 1
549 1 8.00507 18.7161 4.51406 -5.28203 0.132719 5.13027 1 1
550 1 7.97553 20.4913 6.31272 -7.88286 -5.23037 1.60114 1 1
551 1 9.78173 18.7595 6.28072 -3.68097 5.66432 -1.37813 1 1
552 1 9.79652 20.5249 4.50906 -1.67566 -4.33014 1.63515 1 1
553 1 10.6979 17.8449 3.58554 3.21586 -1.13466 -7.2499 1 1
554 1 10.6703 19.6017 5.34709 3.44776 0.891364 -1.60888 1 1
555 1 12.4759 17.847 5.39587 2.71373 1.68427 3.37458 1 1
556 1 12.5239 19.5865 3.61143 -3.09967 -5.19433 -0.725044 1 1
557 1 11.5608 18.7352 4.48089 -1.41885 1.48523 -4.78814 1 1