ITEM: TIMESTEP
850
ITEM: NUMBER OF ATOMS
2953
ITEM: BOX BOUNDS pp pp mm
0.0000000000000000e+00 2.1394294200000001e+01
0.0000000000000000e+00 2.1394294200000001e+01
-4.4571446250000002e-01 5.3485735500000004e+01
ITEM: ATOMS id type x y z vx vy vz v_is_diamond c_structure_type
1 1 0 0 0 0 0 0 1 3
2 1 21.3942 1.76928 1.83053 8.63107 -10.4505 8.40161 1 1
3 1 1.79867 0.0141629 1.76201 4.30687 -1.69265 -0.952268 1 1
4 1 1.78286 1.78286 0 0 0 0 1 3
5 1 0.891429 0.891429 0.891429 0 0 0 1 2
6 1 0.867333 2.66127 2.72503 -3.84579 5.25893 -4.84034 1 1
7 1 2.65116 0.887897 2.70109 -7.17383 4.885 1.0996 1 1
8 1 2.67429 2.67429 0.891429 0 0 0 1 2
9 1 3.56572 0 0 0 0 0 1 3
10 1 3.56476 1.756 1.78088 3.19006 -2.82434 -3.25399 1 1
11 1 5.36242 21.3782 1.74735 -3.55387 -5.65123 4.71752 1 1
12 1 5.34857 1.78286 0 0 0 0 1 3
13 1 4.45714 0.891429 0.891429 0 0 0 1 2
14 1 4.4742 2.7077 2.64947 6.60839 -9.5755 5.65856 1 1
15 1 6.26611 0.882512 2.70857 6.36802 -1.53339 -5.58042 1 1
16 1 6.24 2.67429 0.891429 0 0 0 1 2
17 1 7.13143 0 0 0 0 0 1 3
18 1 7.18022 1.78647 1.83279 7.75669 -3.66437 -0.610949 1 1
19 1 8.90167 0.00466939 1.85081 -0.310072 8.36305 1.00268 1 1
20 1 8.91429 1.78286 0 0 0 0 1 3
21 1 8.02286 0.891429 0.891429 0 0 0 1 2
22 1 8.05878 2.69326 2.74614 2.69391 -0.450963 0.0796064 1 1
23 1 9.81363 0.906363 2.72942 -0.499768 2.17009 9.24747 1 1
24 1 9.80572 2.67429 0.891429 0 0 0 1 2
25 1 10.6971 0 0 0 0 0 1 3
26 1 10.7221 1.80175 1.79752 5.12658 -4.0495 0.578742 1 1
27 1 12.4793 21.3935 1.7778 -8.93863 -1.67681 -2.08123 1 1
28 1 12.48 1.78286 0 0 0 0 1 3
29 1 11.5886 0.891429 0.891429 0 0 0 1 2
30 1 11.62 2.68021 2.68957 -8.21331 -2.90046 1.07838 1 1
31 1 13.3461 0.891508 2.61606 4.25632 -2.77994 -0.267821 1 1
32 1 13.3714 2.67429 0.891429 0 0 0 1 2
33 1 14.2629 0 0 0 0 0 1 3
34 1 14.2832 1.80753 1.76327 -5.04744 6.03255 1.7762 1 1
35 1 16.0639 21.3946 1.76912 -2.20492 3.7631 2.69986 1 1
36 1 16.0457 1.78286 0 0 0 0 1 3
37 1 15.1543 0.891429 0.891429 0 0 0 1 2
38 1 15.1348 2.68331 2.66576 6.89028 6.98461 -0.894581 1 1
39 1 16.9487 0.91613 2.68752 -5.18907 1.32629 -0.204338 1 1
40 1 16.9371 2.67429 0.891429 0 0 0 1 2
41 1 17.8286 0 0 0 0 0 1 3
42 1 17.8482 1.79506 1.80818 -2.33105 -1.92715 -5.2298 1 1
43 1 19.6082 21.3842 1.78483 -6.37974 0.996416 -8.26523 1 1
44 1 19.6114 1.78286 0 0 0 0 1 3
45 1 18.72 0.891429 0.891429 0 0 0 1 2
46 1 18.7149 2.68376 2.66797 6.18887 5.3909 2.4349 1 1
47 1 20.5305 0.860337 2.74133 1.35776 -8.41416 0.664837 1 1
48 1 20.5029 2.67429 0.891429 0 0 0 1 2
49 1 0 3.56572 0 0 0 0 1 3
50 1 21.3792 5.35344 1.80791 -1.24305 6.42713 -4.64487 1 1
51 1 1.75782 3.53513 1.81489 3.88653 -1.57115 1.06163 1 1
52 1 1.78286 5.34857 0 0 0 0 1 3
53 1 0.891429 4.45714 0.891429 0 0 0 1 2
54 1 0.892668 6.2601 2.69251 -0.247982 2.46218 1.67371 1 1
55 1 2.66694 4.42517 2.66027 2.18732 -2.20523 -8.6444 1 1
56 1 2.67429 6.24 0.891429 0 0 0 1 2
57 1 3.56572 3.56572 0 0 0 0 1 3
58 1 3.54693 5.36686 1.80862 -0.472118 3.46516 -0.0213562 1 1
59 1 5.37026 3.57271 1.75907 -0.380007 1.85379 -3.66087 1 1
60 1 5.34857 5.34857 0 0 0 0 1 3
61 1 4.45714 4.45714 0.891429 0 0 0 1 2
62 1 4.4764 6.24033 2.69661 -1.19308 6.09275 0.722594 1 1
63 1 6.2594 4.41317 2.70265 6.44198 1.19075 0.8868 1 1
64 1 6.24 6.24 0.891429 0 0 0 1 2
65 1 7.13143 3.56572 0 0 0 0 1 3
66 1 7.14441 5.33792 1.80779 -2.11313 3.45346 -4.02714 1 1
67 1 8.90987 3.56205 1.7522 6.07979 6.85042 -0.919367 1 1
68 1 8.91429 5.34857 0 0 0 0 1 3
69 1 8.02286 4.45714 0.891429 0 0 0 1 2
70 1 8.0192 6.21767 2.70362 3.30557 -1.94056 3.35093 1 1
71 1 9.79428 4.45539 2.70321 -2.33006 0.13067 -3.65571 1 1
72 1 9.80572 6.24 0.891429 0 0 0 1 2
73 1 10.6971 3.56572 0 0 0 0 1 3
74 1 10.6649 5.38173 1.78505 -2.68708 -3.49755 1.90128 1 1
75 1 12.49 3.58968 1.80701 -5.88021 -0.316317 3.36131 1 1
76 1 12.48 5.34857 0 0 0 0 1 3
77 1 11.5886 4.45714 0.891429 0 0 0 1 2
78 1 11.6261 6.23398 2.66125 5.96728 -2.96295 -6.36538 1 1
79 1 13.3522 4.51613 2.72032 1.9435 1.20124 -2.11076 1 1
80 1 13.3714 6.24 0.891429 0 0 0 1 2
81 1 14.2629 3.56572 0 0 0 0 1 3
82 1 14.2346 5.34329 1.81335 -2.39743 2.34251 -1.05835 1 1
83 1 16.0383 3.57704 1.77816 0.873848 -0.880235 -3.45415 1 1
84 1 16.0457 5.34857 0 0 0 0 1 3
85 1 15.1543 4.45714 0.891429 0 0 0 1 2
86 1 15.0983 6.25152 2.72191 -0.27009 -3.87936 6.96536 1 1
87 1 16.8716 4.48003 2.67926 -2.01292 4.40459 -5.65921 1 1
88 1 16.9371 6.24 0.891429 0 0 0 1 2
89 1 17.8286 3.56572 0 0 0 0 1 3
90 1 17.8319 5.32655 1.8181 -1.97816 8.83577 4.23533 1 1
91 1 19.618 3.58432 1.81893 1.07041 -0.583695 2.47571 1 1
92 1 19.6114 5.34857 0 0 0 0 1 3
93 1 18.72 4.45714 0.891429 0 0 0 1 2
94 1 18.67 6.23078 2.72846 2.72378 5.1125 -1.73152 1 1
95 1 20.5034 4.48534 2.67488 -1.13191 -1.48706 6.61065 1 1
96 1 20.5029 6.24 0.891429 0 0 0 1 2
97 1 0 7.13143 0 0 0 0 1 3
98 1 21.3583 8.93886 1.81689 2.78737 -3.85405 -5.05024 1 1
99 1 1.79346 7.16598 1.78854 1.48036 1.00025 1.82633 1 1
100 1 1.78286 8.91429 0 0 0 0 1 3
101 1 0.891429 8.02286 0.891429 0 0 0 1 2
102 1 0.903738 9.82139 2.69776 -1.59013 -1.79145 -4.39392 1 1
103 1 2.68162 8.07085 2.70047 2.03236 -4.99549 9.00411 1 1
104 1 2.67429 9.80572 0.891429 0 0 0 1 2
105 1 3.56572 7.13143 0 0 0 0 1 3
106 1 3.57646 8.96743 1.76194 0.577813 -3.31791 8.39558 1 1
107 1 5.32948 7.13082 1.76056 -6.56897 -4.06573 2.81313 1 1
108 1 5.34857 8.91429 0 0 0 0 1 3
109 1 4.45714 8.02286 0.891429 0 0 0 1 2
110 1 4.4635 9.83673 2.66165 9.13618 8.31884 10.6969 1 1
111 1 6.24608 8.00231 2.62218 -2.15223 8.60269 -10.2407 1 1
112 1 6.24 9.80572 0.891429 0 0 0 1 2
113 1 7.13143 7.13143 0 0 0 0 1 3
114 1 7.1212 8.95238 1.79194 -0.916584 0.231874 5.67316 1 1
115 1 8.93036 7.14141 1.79387 7.65583 -0.119923 -0.829572 1 1
116 1 8.91429 8.91429 0 0 0 0 1 3
117 1 8.02286 8.02286 0.891429 0 0 0 1 2
118 1 7.97739 9.81779 2.68501 -4.25986 6.16379 8.11539 1 1
119 1 9.85995 8.04768 2.74043 6.01121 -0.712597 -0.763385 1 1
120 1 9.80572 9.80572 0.891429 0 0 0 1 2
121 1 10.6971 7.13143 0 0 0 0 1 3
122 1 10.7303 8.91987 1.79521 -2.91662 5.28874 -5.01367 1 1
123 1 12.4667 7.16828 1.77086 4.40147 0.716482 4.88499 1 1
124 1 12.48 8.91429 0 0 0 0 1 3
125 1 11.5886 8.02286 0.891429 0 0 0 1 2
126 1 11.5874 9.82693 2.65753 -0.46099 6.19628 -3.01285 1 1
127 1 13.3366 8.02686 2.69576 3.18537 -1.93469 2.74064 1 1
128 1 13.3714 9.80572 0.891429 0 0 0 1 2
129 1 14.2629 7.13143 0 0 0 0 1 3
130 1 14.2573 8.92969 1.81639 5.65335 1.93304 -4.95975 1 1
131 1 16.0083 7.13929 1.81883 0.555462 -3.91457 0.550335 1 1
132 1 16.0457 8.91429 0 0 0 0 1 3
133 1 15.1543 8.02286 0.891429 0 0 0 1 2
134 1 15.2093 9.7937 2.69818 -4.79651 3.03694 -0.730143 1 1
135 1 16.9181 7.97585 2.71559 6.67785 -2.42386 -9.013 1 1
136 1 16.9371 9.80572 0.891429 0 0 0 1 2
137 1 17.8286 7.13143 0 0 0 0 1 3
138 1 17.818 8.90132 1.79337 2.15798 4.42152 -2.52294 1 1
139 1 19.6063 7.10718 1.80483 8.33717 -1.07138 4.48971 1 1
140 1 19.6114 8.91429 0 0 0 0 1 3
141 1 18.72 8.02286 0.891429 0 0 0 1 2
142 1 18.696 9.86176 2.71486 -8.34281 -9.17783 8.90189 1 1
143 1 20.52 8.01428 2.71345 -0.550892 -2.9776 6.34512 1 1
144 1 20.5029 9.80572 0.891429 0 0 0 1 2
145 1 0 10.6971 0 0 0 0 1 3
146 1 21.3946 12.4599 1.76438 4.65878 -7.15784 -9.00936 1 1
147 1 1.80678 10.6764 1.79891 2.66763 3.01502 3.71834 1 1
148 1 1.78286 12.48 0 0 0 0 1 3
149 1 0.891429 11.5886 0.891429 0 0 0 1 2
150 1 0.882984 13.3623 2.68914 -3.17431 -6.49422 -1.82705 1 1
151 1 2.7084 11.5706 2.71237 2.34487 -6.11311 -3.62722 1 1
152 1 2.67429 13.3714 0.891429 0 0 0 1 2
153 1 3.56572 10.6971 0 0 0 0 1 3
154 1 3.61124 12.4698 1.78348 -4.62231 2.66234 -9.2214 1 1
155 1 5.38176 10.7232 1.77673 11.6019 -0.0803176 6.37204 1 1
156 1 5.34857 12.48 0 0 0 0 1 3
157 1 4.45714 11.5886 0.891429 0 0 0 1 2
158 1 4.48118 13.3286 2.67269 -0.89428 -5.28798 0.0652551 1 1
159 1 6.23034 11.5989 2.74103 -1.09119 0.411617 -5.91007 1 1
160 1 6.24 13.3714 0.891429 0 0 0 1 2
161 1 7.13143 10.6971 0 0 0 0 1 3
162 1 7.17538 12.5202 1.82976 -2.90854 3.74554 8.91011 1 1
163 1 8.90479 10.7015 1.76554 2.61741 1.95973 1.39578 1 1
164 1 8.91429 12.48 0 0 0 0 1 3
165 1 8.02286 11.5886 0.891429 0 0 0 1 2
166 1 8.06756 13.3682 2.67527 -0.0467706 1.88835 9.61759 1 1
167 1 9.80751 11.5948 2.6923 1.64155 -5.60416 5.06472 1 1
168 1 9.80572 13.3714 0.891429 0 0 0 1 2
169 1 10.6971 10.6971 0 0 0 0 1 3
170 1 10.7235 12.4739 1.85193 -9.58072 0.639552 8.36541 1 1
171 1 12.5018 10.681 1.7945 1.67584 -1.7756 2.548 1 1
172 1 12.48 12.48 0 0 0 0 1 3
173 1 11.5886 11.5886 0.891429 0 0 0 1 2
174 1 11.5976 13.3541 2.73614 1.98155 4.04063 7.77496 1 1
175 1 13.3932 11.6125 2.69675 4.6733 5.0804 6.41359 1 1
176 1 13.3714 13.3714 0.891429 0 0 0 1 2
177 1 14.2629 10.6971 0 0 0 0 1 3
178 1 14.2524 12.4642 1.7718 4.94939 -5.34833 -1.7139 1 1
179 1 16.0312 10.6888 1.80687 -5.98221 -0.955912 -2.7684 1 1
180 1 16.0457 12.48 0 0 0 0 1 3
181 1 15.1543 11.5886 0.891429 0 0 0 1 2
182 1 15.1444 13.3662 2.68653 -0.574324 6.56326 6.76821 1 1
183 1 16.923 11.6043 2.67151 1.2589 6.16888 3.83576 1 1
184 1 16.9371 13.3714 0.891429 0 0 0 1 2
185 1 17.8286 10.6971 0 0 0 0 1 3
186 1 17.8376 12.4814 1.80728 -8.43648 0.835494 2.35689 1 1
187 1 19.5922 10.7133 1.7827 0.511542 2.02682 -0.0282043 1 1
188 1 19.6114 12.48 0 0 0 0 1 3
189 1 18.72 11.5886 0.891429 0 0 0 1 2
190 1 18.7059 13.4219 2.74318 5.73593 -0.464853 -0.450285 1 1
191 1 20.4882 11.5616 2.69925 -2.67587 1.43432 -1.56505 1 1
192 1 20.5029 13.3714 0.891429 0 0 0 1 2
193 1 0 14.2629 0 0 0 0 1 3
194 1 0.0280978 16.0475 1.83699 2.65355 -5.63602 7.8311 1 1
195 1 1.75769 14.2924 1.80864 5.30705 -4.03936 -1.30207 1 1
196 1 1.78286 16.0457 0 0 0 0 1 3
197 1 0.891429 15.1543 0.891429 0 0 0 1 2
198 1 0.927682 16.9573 2.72905 -10.2439 0.0919607 2.82611 1 1
199 1 2.66296 15.1502 2.71855 -5.32188 -1.02568 -0.601145 1 1
200 1 2.67429 16.9371 0.891429 0 0 0 1 2
201 1 3.56572 14.2629 0 0 0 0 1 3
202 1 3.5047 16.0429 1.76768 -2.04725 8.0528 -2.59297 1 1
203 1 5.30531 14.2639 1.75559 -4.62711 -3.93402 3.87747 1 1
204 1 5.34857 16.0457 0 0 0 0 1 3
205 1 4.45714 15.1543 0.891429 0 0 0 1 2
206 1 4.41896 16.9227 2.64232 -0.552371 -0.0346923 2.80878 1 1
207 1 6.23449 15.1945 2.66327 -10.1793 5.32622 2.08066 1 1
208 1 6.24 16.9371 0.891429 0 0 0 1 2
209 1 7.13143 14.2629 0 0 0 0 1 3
210 1 7.13175 16.0295 1.7987 -0.635027 -1.2444 0.549918 1 1
211 1 8.95732 14.2676 1.77399 -2.05598 3.61882 -0.767545 1 1
212 1 8.91429 16.0457 0 0 0 0 1 3
213 1 8.02286 15.1543 0.891429 0 0 0 1 2
214 1 8.04179 16.9114 2.67188 1.42025 5.00072 5.36373 1 1
215 1 9.85317 15.1462 2.6909 -4.48354 -1.00531 2.61748 1 1
216 1 9.80572 16.9371 0.891429 0 0 0 1 2
217 1 10.6971 14.2629 0 0 0 0 1 3
218 1 10.7224 16.0459 1.74705 5.33952 -6.04842 -3.09427 1 1
219 1 12.4723 14.255 1.83353 1.45848 0.844511 -5.59859 1 1
220 1 12.48 16.0457 0 0 0 0 1 3
221 1 11.5886 15.1543 0.891429 0 0 0 1 2
222 1 11.596 16.897 2.69223 -2.13865 -2.30189 -1.70537 1 1
223 1 13.3652 15.1945 2.70122 0.986359 -4.06629 0.88405 1 1
224 1 13.3714 16.9371 0.891429 0 0 0 1 2
225 1 14.2629 14.2629 0 0 0 0 1 3
226 1 14.2705 16.0423 1.81643 -1.23116 -2.69033 -0.758195 1 1
227 1 16.0581 14.3038 1.77912 0.266601 -1.06754 -6.22389 1 1
228 1 16.0457 16.0457 0 0 0 0 1 3
229 1 15.1543 15.1543 0.891429 0 0 0 1 2
230 1 15.1355 16.9914 2.66076 6.59136 -2.64989 -1.7413 1 1
231 1 16.9369 15.1458 2.67317 4.22665 -0.752042 1.1226 1 1
232 1 16.9371 16.9371 0.891429 0 0 0 1 2
233 1 17.8286 14.2629 0 0 0 0 1 3
234 1 17.8878 16.0242 1.7897 4.86392 2.56646 4.77478 1 1
235 1 19.5897 14.2369 1.83647 -1.24802 1.9328 -4.30408 1 1
236 1 19.6114 16.0457 0 0 0 0 1 3
237 1 18.72 15.1543 0.891429 0 0 0 1 2
238 1 18.7815 16.918 2.71529 -6.30571 3.38956 10.1164 1 1
239 1 20.5204 15.1856 2.73174 3.68655 -7.09511 10.5673 1 1
240 1 20.5029 16.9371 0.891429 0 0 0 1 2
241 1 0 17.8286 0 0 0 0 1 3
242 1 0.00401081 19.6239 1.82901 0.75745 -10.5955 3.53059 1 1
243 1 1.81794 17.8575 1.75159 -3.77147 3.9781 -4.95046 1 1
244 1 1.78286 19.6114 0 0 0 0 1 3
245 1 0.891429 18.72 0.891429 0 0 0 1 2
246 1 0.928517 20.5211 2.67793 -8.60398 1.31567 0.789258 1 1
247 1 2.68193 18.7153 2.67327 1.8018 1.60796 1.06647 1 1
248 1 2.67429 20.5029 0.891429 0 0 0 1 2
249 1 3.56572 17.8286 0 0 0 0 1 3
250 1 3.556 19.6157 1.82437 -2.20343 -1.83949 1.29957 1 1
251 1 5.33182 17.7886 1.76573 -3.41683 -3.84545 -1.50589 1 1
252 1 5.34857 19.6114 0 0 0 0 1 3
253 1 4.45714 18.72 0.891429 0 0 0 1 2
254 1 4.4624 20.5164 2.64521 17.8369 -1.40256 1.43617 1 1
255 1 6.21939 18.7308 2.6939 -2.47533 5.15226 -5.03569 1 1
256 1 6.24 20.5029 0.891429 0 0 0 1 2
257 1 7.13143 17.8286 0 0 0 0 1 3
258 1 7.12038 19.6199 1.80576 -8.5837 1.99507 -0.440382 1 1
259 1 8.94448 17.8054 1.72408 -3.59512 -2.57821 7.34854 1 1
260 1 8.91429 19.6114 0 0 0 0 1 3
261 1 8.02286 18.72 0.891429 0 0 0 1 2
262 1 7.95527 20.5028 2.7144 11.3622 1.22505 -3.88458 1 1
263 1 9.77998 18.7004 2.66369 -1.75773 -4.84148 2.61286 1 1
264 1 9.80572 20.5029 0.891429 0 0 0 1 2
265 1 10.6971 17.8286 0 0 0 0 1 3
266 1 10.6927 19.6056 1.78005 -8.49302 7.62847 -1.16088 1 1
267 1 12.4834 17.7623 1.79175 -8.46165 -2.26289 0.721269 1 1
268 1 12.48 19.6114 0 0 0 0 1 3
269 1 11.5886 18.72 0.891429 0 0 0 1 2
270 1 11.6154 20.4694 2.6645 -2.01547 -1.32121 -10.3531 1 1
271 1 13.3972 18.6891 2.70429 3.44689 -0.853513 -0.455639 1 1
272 1 13.3714 20.5029 0.891429 0 0 0 1 2
273 1 14.2629 17.8286 0 0 0 0 1 3
274 1 14.2671 19.6175 1.80082 -3.9265 -3.24737 -3.10552 1 1
275 1 16.028 17.8466 1.79556 0.916692 4.38791 -4.38072 1 1
276 1 16.0457 19.6114 0 0 0 0 1 3
277 1 15.1543 18.72 0.891429 0 0 0 1 2
278 1 15.1736 20.4465 2.7033 3.43878 2.94539 -0.920456 1 1
279 1 16.9447 18.7026 2.69948 4.10342 1.79139 -3.23716 1 1
280 1 16.9371 20.5029 0.891429 0 0 0 1 2
281 1 17.8286 17.8286 0 0 0 0 1 3
282 1 17.843 19.6131 1.7967 -0.119013 -3.96117 2.88616 1 1
283 1 19.6473 17.8039 1.79942 1.38932 -8.39053 3.64351 1 1
284 1 19.6114 19.6114 0 0 0 0 1 3
285 1 18.72 18.72 0.891429 0 0 0 1 2
286 1 18.7473 20.4857 2.7128 -5.86382 -2.3694 2.35836 1 1
287 1 20.5113 18.7467 2.68998 -1.61306 3.89367 5.09679 1 1
288 1 20.5029 20.5029 0.891429 0 0 0 1 2
289 1 0.00583295 0.0478293 3.59863 1.30453 2.95057 -8.44795 1 1
290 1 0.00375918 1.77593 5.44633 -1.3298 0.127702 1.989 1 1
291 1 1.80297 0.0229348 5.42659 0.0941814 8.30688 0.527914 1 1
292 1 1.79988 1.79074 3.60053 -3.04083 -12.1901 6.97524 1 1
293 1 0.899801 0.876402 4.52467 3.01759 -8.62694 0.180093 1 1
294 1 0.883077 2.69328 6.29042 1.81696 5.55893 6.34512 1 1
295 1 2.6704 0.92647 6.31883 10.4501 -0.834752 2.2545 1 1
296 1 2.69115 2.66562 4.48473 3.99274 6.51396 -6.66297 1 1
297 1 3.58579 0.00886088 3.61037 8.17723 -0.966915 11.3493 1 1
298 1 3.57187 1.79821 5.4002 -3.67817 3.50759 2.82171 1 1
299 1 5.35772 0.0256274 5.35761 7.22222 6.0551 5.73496 1 1
300 1 5.35103 1.78691 3.6048 -6.11834 4.73254 -1.09572 1 1
301 1 4.41286 0.934566 4.51422 1.36011 -2.95548 -8.29964 1 1
302 1 4.49993 2.67561 6.31951 3.63026 10.9973 -3.69204 1 1
303 1 6.1942 0.888074 6.28956 -1.8938 1.42238 2.19117 1 1
304 1 6.22915 2.71649 4.52585 0.69251 0.249646 -5.84403 1 1
305 1 7.09926 0.0260473 3.59544 1.35696 -2.4614 9.18362 1 1
306 1 7.1438 1.7728 5.41508 3.16807 4.61738 1.40708 1 1
307 1 8.8812 21.3486 5.4025 6.67401 -2.99688 -1.7431 1 1
308 1 8.93806 1.8225 3.63014 0.431385 -3.19347 8.95331 1 1
309 1 8.03814 0.908819 4.54521 -3.54047 0.819919 1.47057 1 1
310 1 8.00531 2.68622 6.29551 -9.61554 3.30068 -1.08337 1 1
311 1 9.787 0.891164 6.28314 5.78533 -1.29621 0.112452 1 1
312 1 9.818 2.69582 4.53087 5.0611 0.899379 5.32178 1 1
313 1 10.6991 21.3653 3.60543 5.11734 -0.448124 2.31264 1 1
314 1 10.7144 1.74799 5.43232 1.54549 2.42804 1.99957 1 1
315 1 12.4774 0.00683186 5.41101 6.89599 3.25119 3.0737 1 1
316 1 12.4987 1.7813 3.5889 7.19995 1.91656 4.03611 1 1
317 1 11.5918 0.900759 4.50955 8.01387 -5.96641 7.0651 1 1
318 1 11.5745 2.63531 6.26866 1.64913 -0.331068 -6.45967 1 1
319 1 13.4101 0.840198 6.26168 1.1711 3.85333 -5.10575 1 1
320 1 13.3466 2.65556 4.49997 0.394907 0.780499 0.682317 1 1
321 1 14.2955 21.3751 3.5949 -5.389 2.31469 2.419 1 1
322 1 14.2625 1.77845 5.3497 -9.72447 -2.52514 4.82532 1 1
323 1 16.077 0.0147808 5.3877 7.41974 0.941969 7.81652 1 1
324 1 15.9973 1.83547 3.60042 -0.740276 -3.99959 -1.13709 1 1
325 1 15.1563 0.886573 4.46172 -0.205186 -2.82604 2.89695 1 1
326 1 15.1468 2.67374 6.29195 3.91907 2.14134 -4.5291 1 1
327 1 16.9433 0.921873 6.30673 -0.527348 6.74662 -0.0734355 1 1
328 1 16.9453 2.72327 4.48706 1.59824 -2.14367 -2.19344 1 1
329 1 17.8261 0.0222982 3.62385 2.11869 -3.57087 3.381 1 1
330 1 17.7971 1.83708 5.39163 -1.42416 14.291 5.30325 1 1
331 1 19.592 0.019439 5.38054 0.0925076 -0.961513 9.90814 1 1
332 1 19.5932 1.80809 3.60441 -1.78169 -0.568832 11.0899 1 1
333 1 18.6843 0.894332 4.44942 -0.322622 5.03748 -7.16756 1 1
334 1 18.7131 2.68347 6.31755 -5.43973 -2.17156 2.63053 1 1
335 1 20.4699 0.898023 6.32273 4.15551 4.36424 -4.31959 1 1
336 1 20.5124 2.68229 4.52535 2.21248 2.0487 0.190695 1 1
337 1 0.0111346 3.56251 3.62373 -7.28449 3.38971 0.526912 1 1
338 1 0.0164511 5.32455 5.39647 -0.0526385 2.20633 4.51804 1 1
339 1 1.82279 3.56263 5.40511 -2.36106 1.27504 1.36984 1 1
340 1 1.81224 5.35325 3.60765 3.54857 6.32137 1.32072 1 1
341 1 0.933187 4.48567 4.51113 -3.96752 1.49958 3.7444 1 1
342 1 0.918063 6.25128 6.32161 1.06389 7.10906 -2.91396 1 1
343 1 2.70894 4.45892 6.29619 4.70045 1.12192 -0.308456 1 1
344 1 2.70467 6.2197 4.507 -7.22897 -5.06518 0.203811 1 1
345 1 3.55554 3.57608 3.52426 -3.82306 1.02721 0.717742 1 1
346 1 3.56312 5.34403 5.36959 -4.37395 -2.32417 -5.69616 1 1
347 1 5.35804 3.57765 5.41072 2.97675 -1.23574 -3.32507 1 1
348 1 5.3909 5.34643 3.59461 -3.63247 1.51142 -0.00667531 1 1
349 1 4.4623 4.44861 4.438 -3.50296 -3.47923 -3.01133 1 1
350 1 4.52165 6.24816 6.26211 -1.83028 -7.65336 -2.11039 1 1
351 1 6.25201 4.45267 6.27755 1.06266 -2.69869 7.52905 1 1
352 1 6.27667 6.27791 4.47446 6.45387 5.64723 -0.449391 1 1
353 1 7.15869 3.55604 3.6331 -3.62057 -0.617344 2.59028 1 1
354 1 7.14241 5.36576 5.42127 -12.5352 0.27569 2.6527 1 1
355 1 8.91027 3.58416 5.41142 -3.81664 -3.87521 3.64433 1 1
356 1 8.93511 5.34213 3.60904 1.56482 -1.98508 -6.23972 1 1
357 1 8.01168 4.45774 4.54435 9.61368 -2.82681 -2.22154 1 1
358 1 8.02751 6.26819 6.29479 2.68341 -2.63263 -0.793131 1 1
359 1 9.8022 4.45977 6.28973 2.37747 2.49236 -2.92543 1 1
360 1 9.81072 6.25387 4.49982 9.03602 -3.10427 7.87631 1 1
361 1 10.6786 3.58446 3.58504 -3.85022 5.2603 3.18237 1 1
362 1 10.7011 5.33156 5.4138 -2.31524 0.845709 -1.01637 1 1
363 1 12.4884 3.56243 5.36674 -1.76761 1.38737 -4.70668 1 1
364 1 12.4864 5.37034 3.65641 1.65098 -16.5713 -6.31671 1 1
365 1 11.611 4.49572 4.48874 1.99915 1.65188 2.99374 1 1
366 1 11.5928 6.27429 6.30533 3.91853 0.153675 2.95674 1 1
367 1 13.3006 4.42664 6.30001 -1.17661 -1.65518 -2.41092 1 1
368 1 13.3508 6.23586 4.52717 -4.21134 4.85522 1.26922 1 1
369 1 14.2694 3.54421 3.59119 -3.40301 5.73673 -1.81525 1 1
370 1 14.2187 5.3129 5.4171 -1.23059 -0.354996 -0.244728 1 1
371 1 15.9954 3.58066 5.36585 -7.45594 1.96571 -4.08359 1 1
372 1 16.0471 5.34549 3.59327 -2.78402 8.59751 2.79598 1 1
373 1 15.0821 4.46048 4.47831 6.33715 3.49428 -2.45453 1 1
374 1 15.0923 6.19751 6.22844 -5.97019 -3.43868 -5.36776 1 1
375 1 16.89 4.45196 6.26271 -2.056 -12.1894 0.378037 1 1
376 1 16.9169 6.22344 4.50301 2.65127 -4.30799 -2.27601 1 1
377 1 17.8256 3.57432 3.57612 -2.83514 1.75253 11.8363 1 1
378 1 17.8378 5.3119 5.40404 -0.430559 4.15417 0.325929 1 1
379 1 19.6245 3.59894 5.4286 3.5135 10.1521 0.57026 1 1
380 1 19.5802 5.37138 3.61126 -0.357341 -1.01196 -0.0918673 1 1
381 1 18.7025 4.42295 4.48386 -3.68768 -0.544081 10.6336 1 1
382 1 18.7217 6.24669 6.3186 -2.59725 2.47256 -0.696439 1 1
383 1 20.4851 4.48295 6.24754 -1.52425 10.883 -0.890182 1 1
384 1 20.5466 6.28185 4.53045 -11.1958 -6.59604 -3.60877 1 1
385 1 0.0318196 7.16206 3.58587 0.993861 -4.62112 -4.67355 1 1
386 1 0.0479812 8.91695 5.3658 3.23504 1.86325 -2.86181 1 1
387 1 1.84115 7.16762 5.43077 0.513265 -0.185503 4.80323 1 1
388 1 1.8044 8.94586 3.58935 -2.33334 0.421566 -2.99654 1 1
389 1 0.957405 8.04014 4.51317 -1.1335 -3.99981 -0.500153 1 1
390 1 0.916895 9.82952 6.26729 4.1103 1.53919 3.59987 1 1
391 1 2.69679 8.06003 6.27977 -0.286995 4.07656 -3.23372 1 1
392 1 2.76565 9.80953 4.48448 4.82889 3.41247 -1.22165 1 1
393 1 3.61466 7.14488 3.55945 -7.03494 -5.91439 -2.98289 1 1
394 1 3.6331 8.89636 5.3691 7.23955 -0.598426 3.2917 1 1
395 1 5.42213 7.12571 5.39579 -2.92471 1.13818 0.975088 1 1
396 1 5.38591 8.92484 3.55775 -2.4105 7.16302 3.43542 1 1
397 1 4.52567 8.06568 4.52154 6.94298 0.0233014 0.395814 1 1
398 1 4.4886 9.82559 6.26362 -1.63194 0.0415485 -6.95806 1 1
399 1 6.2623 8.01033 6.30211 -2.16119 1.43005 -1.30934 1 1
400 1 6.25115 9.85454 4.47696 -4.12634 -3.12419 0.85393 1 1
401 1 7.1099 7.15842 3.5752 -3.34755 -0.0622414 2.7107 1 1
402 1 7.14612 8.95878 5.40193 8.42657 1.40838 0.760511 1 1
403 1 8.92372 7.1467 5.40847 0.24494 3.59754 7.63574 1 1
404 1 8.90713 8.91848 3.61094 -2.3949 -1.10444 -3.52795 1 1
405 1 7.99074 8.02036 4.47314 0.0795626 2.72053 1.1331 1 1
406 1 8.0049 9.80031 6.31067 -0.108185 -6.47387 -6.62761 1 1
407 1 9.79126 8.03887 6.26306 -1.52169 9.14547 7.13313 1 1
408 1 9.78309 9.80238 4.52175 -2.15525 2.30417 -1.57615 1 1
409 1 10.7277 7.13403 3.6025 -0.991604 -0.855664 0.306221 1 1
410 1 10.6846 8.9391 5.3967 2.08667 3.91346 0.717722 1 1
411 1 12.4699 7.13488 5.42891 9.65201 5.30881 3.13197 1 1
412 1 12.4841 8.90434 3.63453 3.79826 0.145838 3.62939 1 1
413 1 11.6156 8.03928 4.5389 -2.27701 -2.18552 6.59883 1 1
414 1 11.5902 9.82632 6.29874 -1.64967 3.65933 4.79996 1 1
415 1 13.3402 8.05166 6.29631 -0.0572089 -0.0883843 -0.121639 1 1
416 1 13.41 9.85888 4.49949 3.12285 0.375787 3.89569 1 1
417 1 14.2298 7.13436 3.59706 -9.39053 4.8368 0.118576 1 1
418 1 14.252 8.90133 5.42598 1.6509 5.07927 -5.89847 1 1
419 1 16.0445 7.08678 5.36375 -4.87207 3.83432 2.35423 1 1
420 1 16.0634 8.89502 3.60583 -8.50974 4.7475 -2.63513 1 1
421 1 15.1313 7.99573 4.51658 2.61986 2.59028 1.82484 1 1
422 1 15.168 9.76679 6.30918 6.98417 -6.02005 -0.536608 1 1
423 1 16.9185 8.00028 6.25756 -1.99905 3.97142 2.30135 1 1
424 1 16.9147 9.81445 4.46582 -2.06182 0.663907 5.04456 1 1
425 1 17.7655 7.18292 3.64946 -2.08736 3.74139 2.21045 1 1
426 1 17.8424 8.87491 5.36807 -0.78315 -8.27409 6.84736 1 1
427 1 19.6219 7.0681 5.39306 -6.18045 1.62934 0.83698 1 1
428 1 19.6487 8.88792 3.62236 0.488395 3.76618 -3.66364 1 1
429 1 18.7586 8.00234 4.47164 0.555229 5.49799 1.98077 1 1
430 1 18.7158 9.78315 6.25663 2.30553 0.401349 6.24374 1 1
431 1 20.5405 8.03175 6.26776 3.38176 -1.57666 2.51783 1 1
432 1 20.511 9.78845 4.49843 4.91534 -8.77927 5.17982 1 1
433 1 21.3729 10.6705 3.60753 -0.948063 0.388465 2.93783 1 1
434 1 21.3933 12.4916 5.38954 6.85558 -4.93501 5.13884 1 1
435 1 1.76529 10.6624 5.36599 -2.39391 5.4912 8.72229 1 1
436 1 1.8025 12.4444 3.55907 6.69439 5.30716 1.3685 1 1
437 1 0.880203 11.5698 4.44656 -0.144369 2.39823 6.38716 1 1
438 1 0.898463 13.3515 6.28688 4.01046 -4.05873 3.82404 1 1
439 1 2.69664 11.5759 6.27788 5.92433 -1.43043 6.71462 1 1
440 1 2.69147 13.3719 4.5088 -10.7353 10.2275 4.52706 1 1
441 1 3.60489 10.6768 3.58348 6.32484 -1.31261 -3.14947 1 1
442 1 3.57751 12.4491 5.39303 -1.37564 5.95783 2.39113 1 1
443 1 5.40426 10.7284 5.35007 -3.50778 1.00577 6.5163 1 1
444 1 5.36657 12.5332 3.59867 3.32235 1.96355 8.36825 1 1
445 1 4.49976 11.5838 4.48482 -7.51415 6.23181 -2.41185 1 1
446 1 4.51991 13.3828 6.3033 -0.0319181 -6.78242 -2.08241 1 1
447 1 6.22397 11.6275 6.23816 6.21623 -5.11738 7.70727 1 1
448 1 6.2571 13.4205 4.45554 4.33123 5.8223 -4.04637 1 1
449 1 7.17016 10.7265 3.57258 2.7154 -9.62275 0.679927 1 1
450 1 7.15344 12.4646 5.36735 -1.43566 -1.49377 -5.6056 1 1
451 1 8.92313 10.7232 5.43652 -3.43586 3.01674 2.31209 1 1
452 1 8.93044 12.4996 3.61947 2.7862 5.47864 2.95674 1 1
453 1 8.05353 11.6091 4.48611 6.81741 4.79016 3.90277 1 1
454 1 8.03028 13.3637 6.26529 2.42821 -3.27314 3.38119 1 1
455 1 9.82802 11.5874 6.28386 0.0303328 4.31114 -4.01232 1 1
456 1 9.79154 13.3707 4.50291 -8.13031 2.72942 0.234242 1 1
457 1 10.6911 10.6582 3.59978 -0.0517976 -1.69553 -7.40885 1 1
458 1 10.7333 12.5034 5.40119 -0.621066 1.46799 3.5603 1 1
459 1 12.4669 10.7326 5.34623 8.08789 -1.04341 -2.86208 1 1
460 1 12.5053 12.5236 3.60565 2.51931 2.90439 3.17618 1 1
461 1 11.5882 11.5925 4.48373 -1.44797 -2.53907 4.22559 1 1
462 1 11.6295 13.3551 6.28461 1.46697 -3.80111 0.230009 1 1
463 1 13.4064 11.5437 6.26507 -0.0342025 5.15492 0.737003 1 1
464 1 13.4066 13.3795 4.4604 -4.04222 2.07669 -5.38627 1 1
465 1 14.3141 10.7247 3.62935 -4.61 2.24457 4.74554 1 1
466 1 14.296 12.4622 5.36285 -3.22909 7.37025 -5.22003 1 1
467 1 16.0503 10.7017 5.4086 0.901542 -5.06584 -1.88217 1 1
468 1 16.0189 12.4483 3.58973 -1.9199 -0.460114 5.27225 1 1
469 1 15.1714 11.5869 4.50188 -4.75674 4.12417 3.73157 1 1
470 1 15.1815 13.3784 6.26976 -13.6641 2.39538 -2.7053 1 1
471 1 16.935 11.6141 6.30934 -0.3197 -1.17063 -10.4333 1 1
472 1 16.9712 13.4195 4.45437 3.68964 0.985759 -0.33747 1 1
473 1 17.8328 10.7298 3.61667 -2.18589 -0.878533 -4.63071 1 1
474 1 17.7999 12.4911 5.39393 -4.79411 -4.63327 0.600834 1 1
475 1 19.6037 10.6533 5.40176 6.20035 -4.23837 3.72634 1 1
476 1 19.6336 12.4994 3.64481 3.04944 -3.11436 -2.96411 1 1
477 1 18.735 11.5792 4.49651 2.19126 -1.27675 2.2066 1 1
478 1 18.6917 13.4074 6.27596 -6.57523 -0.752444 -10.368 1 1
479 1 20.4949 11.5971 6.28574 0.972508 2.94868 5.39005 1 1
480 1 20.5459 13.4099 4.50468 4.16405 1.56417 0.0645326 1 1
481 1 0.0124109 14.2816 3.6263 0.222596 2.92819 1.03983 1 1
482 1 21.3905 16.0948 5.43284 2.54869 -1.4817 -7.76007 1 1
483 1 1.80476 14.2791 5.39794 1.8716 3.46137 -5.40509 1 1
484 1 1.78358 16.064 3.60564 4.63795 -7.53124 8.28922 1 1
485 1 0.934438 15.2252 4.48948 0.945888 7.53086 -2.84943 1 1
486 1 0.903298 16.9063 6.31777 0.785058 -8.20718 -0.47912 1 1
487 1 2.69131 15.1206 6.28489 -7.41113 -3.59228 -4.67824 1 1
488 1 2.73112 16.9431 4.48092 4.83163 0.885212 -1.40727 1 1
489 1 3.58672 14.2676 3.62109 2.6399 -7.66343 -0.697536 1 1
490 1 3.5823 16.0511 5.39142 -2.77463 0.235486 8.40691 1 1
491 1 5.37385 14.3099 5.34371 3.16345 2.44151 2.53042 1 1
492 1 5.34806 16.1035 3.59771 3.70676 -2.02641 2.8536 1 1
493 1 4.4763 15.1991 4.45804 9.20362 -1.93474 4.7058 1 1
494 1 4.52298 16.9723 6.29305 -4.72631 9.98966 -1.82758 1 1
495 1 6.3093 15.2118 6.28961 -2.55259 1.76554 0.780333 1 1
496 1 6.23533 16.9629 4.45244 -6.34572 -0.520435 6.16955 1 1
497 1 7.12755 14.2588 3.53909 1.28785 1.65561 5.7088 1 1
498 1 7.15404 16.0767 5.33383 -1.87158 2.21893 -0.310011 1 1
499 1 8.87785 14.2548 5.35073 2.52197 6.31862 3.9212 1 1
500 1 8.92181 16.0542 3.50835 0.841448 -5.28178 5.09871 1 1
501 1 8.01654 15.1586 4.44768 -5.8976 -4.66419 -4.83425 1 1
502 1 8.00486 16.9805 6.26281 0.880312 6.73411 -0.425054 1 1
503 1 9.81029 15.1324 6.23599 0.0683703 5.71327 -1.0075 1 1
504 1 9.77026 16.8993 4.45317 2.54961 3.72772 -5.81518 1 1
505 1 10.6725 14.2263 3.60741 0.416235 3.54969 3.46275 1 1
506 1 10.6485 16.0192 5.33694 9.30579 -3.27412 2.91224 1 1
507 1 12.5337 14.266 5.36483 5.2864 1.99064 -0.240143 1 1
508 1 12.4735 16.0715 3.62242 -2.30899 0.195332 8.95288 1 1
509 1 11.6272 15.1569 4.45395 -3.41943 -0.767128 1.84353 1 1
510 1 11.5529 16.9296 6.21176 2.41231 0.237942 1.93461 1 1
511 1 13.4305 15.161 6.28046 7.04185 6.23989 -3.21771 1 1
512 1 13.3644 16.9622 4.49872 1.08093 -5.79804 -1.03891 1 1
513 1 14.2921 14.2519 3.60431 4.59579 8.08494 15.1186 1 1
514 1 14.3313 16.0568 5.37266 -3.96431 -1.24299 -0.46206 1 1
515 1 16.0767 14.3005 5.37657 8.5523 -2.20217 -5.37603 1 1
516 1 16.082 16.0781 3.56696 -0.550334 -2.78888 5.10749 1 1
517 1 15.1807 15.1718 4.4356 -5.44352 5.37856 3.33045 1 1
518 1 15.1643 16.9685 6.29449 3.01051 3.83392 7.67788 1 1
519 1 16.9583 15.2117 6.29389 8.12193 -4.65414 -4.3596 1 1
520 1 16.9193 16.9452 4.48602 1.81185 -7.90331 -2.93384 1 1
521 1 17.8023 14.3189 3.60762 5.53345 -5.42572 -5.44167 1 1
522 1 17.8155 16.0814 5.39814 4.63017 10.0302 -2.50866 1 1
523 1 19.6057 14.2598 5.37361 4.8273 6.23358 -0.497026 1 1
524 1 19.627 16.0563 3.62885 -9.541 -2.421 5.20354 1 1
525 1 18.7246 15.1837 4.52104 -2.45907 5.78091 -4.7854 1 1
526 1 18.7104 16.9312 6.31066 3.90709 2.84888 4.93961 1 1
527 1 20.4925 15.1071 6.26083 3.60766 2.96731 -5.65931 1 1
528 1 20.5461 16.9406 4.53487 -7.39144 -5.45409 0.692315 1 1
529 1 0.0175524 17.8587 3.57578 -0.147509 3.93386 3.58617 1 1
530 1 0.0456771 19.6409 5.412 -0.997237 -2.45565 10.7612 1 1
531 1 1.77414 17.813 5.36261 3.94121 3.34767 -1.25117 1 1
532 1 1.7939 19.636 3.58318 -0.877293 -8.32678 -3.14065 1 1
533 1 0.946984 18.7243 4.49601 0.719128 -2.35703 5.89991 1 1
534 1 0.972482 20.5146 6.29193 1.38782 -0.0124648 -3.72807 1 1
535 1 2.66027 18.7034 6.23556 0.47913 3.76091 2.01455 1 1
536 1 2.65519 20.4919 4.4968 1.86377 -7.37711 -2.09688 1 1
537 1 3.58882 17.8343 3.55476 3.2724 -0.751528 1.62676 1 1
538 1 3.56739 19.5872 5.36662 1.47279 -5.86914 -5.93469 1 1
539 1 5.34682 17.9009 5.36871 -5.60056 2.53521 -1.0172 1 1
540 1 5.32166 19.6552 3.54573 -1.4934 -1.60871 -1.40123 1 1
541 1 4.45781 18.7663 4.44414 2.77812 -2.86907 0.928367 1 1
542 1 4.45744 20.5078 6.2668 1.69808 1.4212 -6.99503 1 1
543 1 6.21147 18.7456 6.26598 4.20924 0.774198 -4.13898 1 1
544 1 6.17047 20.4971 4.43733 -8.40611 6.97136 1.298 1 1
545 1 7.12918 17.8372 3.5741 -8.46381 5.00615 -2.12099 1 1
546 1 7.06521 19.5823 5.39152 2.7004 -5.59737 6.39974 1 1
547 1 8.88257 17.8221 5.36719 -1.89933 1.55318 -4.52825 1 1
548 1 8.85886 19.5978 3.58629 1.02049 -6.53223 -8.56182 1 1
549 1 7.99502 18.7208 4.47644 1.27187 -1.92455 -7.22145 1 1
550 1 7.94055 20.5037 6.26381 2.86672 4.02516 -2.46879 1 1
551 1 9.78983 18.7207 6.2326 0.658532 -6.40101 0.552151 1 1
552 1 9.75108 20.494 4.48907 -0.871769 -2.32776 -3.41827 1 1
553 1 10.6848 17.8154 3.54566 -5.22921 -5.45217 4.3145 1 1
554 1 10.6891 19.6314 5.39254 -2.86322 -0.745306 3.9009 1 1
555 1 12.4605 17.8213 5.35293 -1.80595 -4.09157 -6.49985 1 1
556 1 12.434 19.6021 3.56128 -0.354926 5.36181 -2.28896 1 1