ITEM: TIMESTEP
1500
ITEM: NUMBER OF ATOMS
2952
ITEM: BOX BOUNDS pp pp mm
0.0000000000000000e+00 2.1394294200000001e+01
0.0000000000000000e+00 2.1394294200000001e+01
-4.4571446250000002e-01 5.3485735500000004e+01
ITEM: ATOMS id type x y z vx vy vz v_is_diamond c_structure_type
1 1 0 0 0 0 0 0 1 3
2 1 1.78286 1.78286 0 0 0 0 1 3
3 1 0.891429 0.891429 0.891429 0 0 0 1 2
4 1 0.869172 2.69086 2.69708 -1.40477 -5.77342 -3.09242 1 1
5 1 2.6873 0.889805 2.68266 4.63595 2.89663 -0.549521 1 1
6 1 2.67429 2.67429 0.891429 0 0 0 1 2
7 1 21.3673 1.76117 1.82499 -1.9691 10.2043 3.38448 1 1
8 1 1.79251 21.4036 1.82573 -5.22008 3.90824 3.85068 1 1
9 1 1.75644 3.59345 1.79189 -1.63824 -2.43227 -10.6132 1 1
10 1 3.53336 1.80055 1.79192 -0.770367 -1.18609 5.57394 1 1
11 1 3.56572 0 0 0 0 0 1 3
12 1 5.34857 1.78286 0 0 0 0 1 3
13 1 4.45714 0.891429 0.891429 0 0 0 1 2
14 1 4.42981 2.63209 2.74067 -3.88083 9.03853 0.60709 1 1
15 1 6.23037 0.91633 2.66703 -0.338173 5.14049 4.64957 1 1
16 1 6.24 2.67429 0.891429 0 0 0 1 2
17 1 7.15435 1.76155 1.77123 -3.06214 1.64309 -0.277243 1 1
18 1 7.13143 0 0 0 0 0 1 3
19 1 8.02286 0.891429 0.891429 0 0 0 1 2
20 1 8.01208 2.68232 2.71198 5.85431 -0.32194 5.23878 1 1
21 1 8.91429 1.78286 0 0 0 0 1 3
22 1 9.84624 0.895225 2.72378 6.68796 2.16734 -3.40695 1 1
23 1 9.80572 2.67429 0.891429 0 0 0 1 2
24 1 8.92184 0.0214506 1.77666 8.2468 -1.01451 -3.21132 1 1
25 1 10.7186 1.75886 1.80586 0.586253 1.54997 -8.31418 1 1
26 1 10.6971 0 0 0 0 0 1 3
27 1 12.48 1.78286 0 0 0 0 1 3
28 1 11.5886 0.891429 0.891429 0 0 0 1 2
29 1 11.599 2.67945 2.6938 1.41995 0.706292 -7.27458 1 1
30 1 13.3877 0.91117 2.73481 -5.17549 -4.65108 -0.327745 1 1
31 1 13.3714 2.67429 0.891429 0 0 0 1 2
32 1 14.2177 1.79593 1.76038 4.56322 -2.67993 -0.293272 1 1
33 1 14.2629 0 0 0 0 0 1 3
34 1 16.0457 1.78286 0 0 0 0 1 3
35 1 15.1543 0.891429 0.891429 0 0 0 1 2
36 1 15.0936 2.69179 2.66984 1.68073 -2.28534 -6.44267 1 1
37 1 16.9459 0.853996 2.70695 6.85666 6.19358 -7.20567 1 1
38 1 16.9371 2.67429 0.891429 0 0 0 1 2
39 1 16.0485 0.032859 1.76145 -5.08474 -0.293166 14.2545 1 1
40 1 17.8398 1.79309 1.79079 -2.26036 1.65623 0.923101 1 1
41 1 17.8286 0 0 0 0 0 1 3
42 1 19.6114 1.78286 0 0 0 0 1 3
43 1 18.72 0.891429 0.891429 0 0 0 1 2
44 1 18.7377 2.66196 2.68678 -4.35366 0.875043 0.950695 1 1
45 1 20.491 0.854459 2.70089 5.11988 6.70913 -0.481545 1 1
46 1 20.5029 2.67429 0.891429 0 0 0 1 2
47 1 0 3.56572 0 0 0 0 1 3
48 1 1.78286 5.34857 0 0 0 0 1 3
49 1 0.891429 4.45714 0.891429 0 0 0 1 2
50 1 0.922129 6.26259 2.6766 2.35356 4.44758 -0.86598 1 1
51 1 2.68367 4.45162 2.67791 0.436953 -3.37961 2.51969 1 1
52 1 2.67429 6.24 0.891429 0 0 0 1 2
53 1 3.5723 5.33722 1.76035 0.237272 -0.069397 -6.88468 1 1
54 1 5.34242 3.54826 1.80376 0.851981 2.45221 6.77751 1 1
55 1 3.56572 3.56572 0 0 0 0 1 3
56 1 5.34857 5.34857 0 0 0 0 1 3
57 1 4.45714 4.45714 0.891429 0 0 0 1 2
58 1 4.48567 6.22316 2.69448 0.746611 -5.16982 -0.0189227 1 1
59 1 6.2475 4.46296 2.70192 3.0687 1.453 1.53998 1 1
60 1 6.24 6.24 0.891429 0 0 0 1 2
61 1 5.34903 7.13295 1.77467 -5.2304 5.91499 -2.96511 1 1
62 1 7.12251 5.33564 1.81474 -2.26302 -2.00547 -0.701934 1 1
63 1 7.13143 3.56572 0 0 0 0 1 3
64 1 8.88806 3.59155 1.76574 0.60481 3.80714 3.1014 1 1
65 1 8.02286 4.45714 0.891429 0 0 0 1 2
66 1 7.99878 6.27769 2.68101 0.888983 2.4347 -1.30565 1 1
67 1 8.91429 5.34857 0 0 0 0 1 3
68 1 9.7711 4.49305 2.68973 11.6156 5.93949 11.8738 1 1
69 1 9.80572 6.24 0.891429 0 0 0 1 2
70 1 10.7193 5.31399 1.82624 0.229918 -0.759016 5.78107 1 1
71 1 12.4897 3.56486 1.79288 -3.6172 -2.92373 7.97076 1 1
72 1 10.6971 3.56572 0 0 0 0 1 3
73 1 12.48 5.34857 0 0 0 0 1 3
74 1 11.5886 4.45714 0.891429 0 0 0 1 2
75 1 11.5873 6.23357 2.68126 -0.685052 -5.57953 5.82852 1 1
76 1 13.3797 4.4293 2.68318 3.91702 0.376323 0.395423 1 1
77 1 13.3714 6.24 0.891429 0 0 0 1 2
78 1 14.2983 5.34445 1.80392 -4.2176 -1.43651 -0.31306 1 1
79 1 16.0269 3.58318 1.78687 -6.34428 -5.06115 -2.12542 1 1
80 1 14.2629 3.56572 0 0 0 0 1 3
81 1 16.0457 5.34857 0 0 0 0 1 3
82 1 15.1543 4.45714 0.891429 0 0 0 1 2
83 1 15.1309 6.23997 2.69364 -4.25527 -5.28449 1.06123 1 1
84 1 16.954 4.46515 2.70325 -1.58666 -14.0642 4.59743 1 1
85 1 16.9371 6.24 0.891429 0 0 0 1 2
86 1 17.8234 5.39838 1.82145 1.61432 5.98189 4.87742 1 1
87 1 19.6085 3.57214 1.81056 1.87151 1.48353 2.5598 1 1
88 1 0.0271516 5.35144 1.79112 -0.947327 10.486 1.30272 1 1
89 1 17.8286 3.56572 0 0 0 0 1 3
90 1 19.6114 5.34857 0 0 0 0 1 3
91 1 18.72 4.45714 0.891429 0 0 0 1 2
92 1 18.6934 6.3024 2.72658 9.08608 -1.33665 6.82212 1 1
93 1 20.5047 4.49509 2.71094 -2.76764 1.57087 -8.44168 1 1
94 1 20.5029 6.24 0.891429 0 0 0 1 2
95 1 19.5804 7.14992 1.79292 0.895543 12.6544 -0.329465 1 1
96 1 1.76023 7.12589 1.81128 5.93768 2.73889 6.39111 1 1
97 1 0 7.13143 0 0 0 0 1 3
98 1 0.891429 8.02286 0.891429 0 0 0 1 2
99 1 2.63058 8.04608 2.69297 4.73789 -2.03617 0.812023 1 1
100 1 1.78286 8.91429 0 0 0 0 1 3
101 1 0.872211 9.85078 2.72424 -3.44543 -1.21916 6.77628 1 1
102 1 2.67429 9.80572 0.891429 0 0 0 1 2
103 1 1.77411 10.6728 1.79521 0.169923 5.84988 -0.896265 1 1
104 1 3.55928 8.92387 1.79383 -5.08739 -1.88129 2.23153 1 1
105 1 3.56572 7.13143 0 0 0 0 1 3
106 1 4.45714 8.02286 0.891429 0 0 0 1 2
107 1 6.20568 8.04707 2.61702 0.863944 5.75008 5.94294 1 1
108 1 5.34857 8.91429 0 0 0 0 1 3
109 1 4.46836 9.83368 2.69166 3.95609 2.55552 1.21175 1 1
110 1 6.24 9.80572 0.891429 0 0 0 1 2
111 1 7.15212 8.96035 1.78222 -3.88542 0.934499 -7.44002 1 1
112 1 8.9525 7.15054 1.82144 -6.15643 -0.340673 -1.20081 1 1
113 1 7.13143 7.13143 0 0 0 0 1 3
114 1 8.02286 8.02286 0.891429 0 0 0 1 2
115 1 9.79924 8.07584 2.69507 2.64236 2.6602 -3.85648 1 1
116 1 8.02005 9.82338 2.66439 -0.120202 -7.50926 5.54521 1 1
117 1 8.91429 8.91429 0 0 0 0 1 3
118 1 9.80572 9.80572 0.891429 0 0 0 1 2
119 1 10.708 8.91803 1.7936 6.41417 -7.43304 -5.8668 1 1
120 1 12.5031 7.10069 1.76363 -3.58718 -2.28639 -3.46944 1 1
121 1 10.6971 7.13143 0 0 0 0 1 3
122 1 11.5886 8.02286 0.891429 0 0 0 1 2
123 1 13.3628 8.0161 2.67927 3.28686 -0.309859 0.555922 1 1
124 1 12.48 8.91429 0 0 0 0 1 3
125 1 11.6245 9.7646 2.71195 -3.09481 5.8699 11.326 1 1
126 1 13.3714 9.80572 0.891429 0 0 0 1 2
127 1 12.5114 10.734 1.81319 0.925377 -1.31908 -1.34374 1 1
128 1 16.0221 7.08986 1.78012 -2.87433 -8.50619 1.62049 1 1
129 1 14.2958 8.90128 1.75194 -12.4504 -0.955225 6.82446 1 1
130 1 14.2629 7.13143 0 0 0 0 1 3
131 1 15.1543 8.02286 0.891429 0 0 0 1 2
132 1 16.8623 8.03852 2.67986 -3.07418 -3.71105 2.3234 1 1
133 1 16.0457 8.91429 0 0 0 0 1 3
134 1 15.1364 9.8004 2.69711 0.996242 2.66714 5.45327 1 1
135 1 16.9371 9.80572 0.891429 0 0 0 1 2
136 1 16.0402 10.7006 1.80839 4.86654 -1.75453 -2.53396 1 1
137 1 17.8192 8.91043 1.80814 -0.20634 -2.33022 2.0786 1 1
138 1 -0.0119001 8.91322 1.82092 -3.36047 7.21251 -5.94943 1 1
139 1 17.8286 7.13143 0 0 0 0 1 3
140 1 18.72 8.02286 0.891429 0 0 0 1 2
141 1 20.4746 8.05579 2.70928 3.79011 1.27704 -0.634583 1 1
142 1 19.6114 8.91429 0 0 0 0 1 3
143 1 18.7133 9.77963 2.72458 2.62377 7.6869 5.83204 1 1
144 1 20.5029 9.80572 0.891429 0 0 0 1 2
145 1 0 10.6971 0 0 0 0 1 3
146 1 1.78286 12.48 0 0 0 0 1 3
147 1 0.891429 11.5886 0.891429 0 0 0 1 2
148 1 2.69389 11.5692 2.67524 1.82414 5.31147 -6.75933 1 1
149 1 0.833368 13.3718 2.66673 0.846649 10.8018 1.41087 1 1
150 1 2.67429 13.3714 0.891429 0 0 0 1 2
151 1 21.3205 12.4855 1.76743 2.34688 0.755186 0.257305 1 1
152 1 5.33896 10.6845 1.80562 -2.08621 3.19125 -6.38095 1 1
153 1 3.56369 12.4962 1.8058 -0.842076 0.759753 9.25647 1 1
154 1 3.56572 10.6971 0 0 0 0 1 3
155 1 5.34857 12.48 0 0 0 0 1 3
156 1 4.45714 11.5886 0.891429 0 0 0 1 2
157 1 6.22491 11.5906 2.7014 -2.2437 -5.52568 4.41573 1 1
158 1 4.46637 13.4148 2.74182 -4.94215 1.8695 -2.54303 1 1
159 1 6.24 13.3714 0.891429 0 0 0 1 2
160 1 5.38345 14.2883 1.80265 1.73365 -7.67742 1.48397 1 1
161 1 8.91708 10.7073 1.79765 -0.762666 -3.60577 -2.08942 1 1
162 1 7.11504 12.4881 1.77374 -0.878076 3.33637 -6.47302 1 1
163 1 7.13143 10.6971 0 0 0 0 1 3
164 1 8.02286 11.5886 0.891429 0 0 0 1 2
165 1 8.91429 12.48 0 0 0 0 1 3
166 1 9.79224 11.593 2.70528 2.37495 9.78799 -7.13783 1 1
167 1 8.02548 13.377 2.65203 -1.686 7.303 -4.04995 1 1
168 1 9.80572 13.3714 0.891429 0 0 0 1 2
169 1 10.6844 12.4729 1.80319 6.00611 2.7123 2.4726 1 1
170 1 10.6971 10.6971 0 0 0 0 1 3
171 1 12.48 12.48 0 0 0 0 1 3
172 1 11.5886 11.5886 0.891429 0 0 0 1 2
173 1 13.4004 11.5546 2.70918 -2.62659 1.29224 -2.67626 1 1
174 1 11.5835 13.3241 2.65398 -3.65179 2.17179 -5.54129 1 1
175 1 13.3714 13.3714 0.891429 0 0 0 1 2
176 1 12.4693 14.2374 1.7725 -2.44985 1.95957 1.91185 1 1
177 1 14.2914 12.464 1.81242 -3.15371 -0.289128 -0.639686 1 1
178 1 14.2629 10.6971 0 0 0 0 1 3
179 1 16.0457 12.48 0 0 0 0 1 3
180 1 15.1543 11.5886 0.891429 0 0 0 1 2
181 1 16.9644 11.555 2.65648 1.3283 1.06083 -1.1271 1 1
182 1 15.1656 13.3841 2.71407 -1.80766 -7.37738 3.70372 1 1
183 1 16.9371 13.3714 0.891429 0 0 0 1 2
184 1 17.8402 12.4952 1.77991 5.71992 -5.84075 7.3352 1 1
185 1 19.6301 10.6599 1.84603 1.19681 3.54101 -0.240354 1 1
186 1 17.8286 10.6971 0 0 0 0 1 3
187 1 19.6114 12.48 0 0 0 0 1 3
188 1 18.72 11.5886 0.891429 0 0 0 1 2
189 1 20.4869 11.6526 2.67017 -10.4882 2.1909 -0.300321 1 1
190 1 18.6976 13.3701 2.65687 -2.18013 -3.56878 -1.13343 1 1
191 1 20.5029 13.3714 0.891429 0 0 0 1 2
192 1 19.6117 14.2983 1.78372 -6.00775 -4.29281 -8.78691 1 1
193 1 1.76424 14.2586 1.82737 -1.81262 -1.01301 -1.19413 1 1
194 1 0 14.2629 0 0 0 0 1 3
195 1 1.78286 16.0457 0 0 0 0 1 3
196 1 0.891429 15.1543 0.891429 0 0 0 1 2
197 1 0.888078 16.9482 2.69783 0.826223 2.18919 -0.931788 1 1
198 1 2.67356 15.1763 2.67029 5.90843 -11.3016 -6.24264 1 1
199 1 2.67429 16.9371 0.891429 0 0 0 1 2
200 1 21.3684 16.0356 1.8249 0.586699 -6.03356 -6.86646 1 1
201 1 3.56082 16.0629 1.7772 3.08404 -6.77145 0.143151 1 1
202 1 3.56572 14.2629 0 0 0 0 1 3
203 1 5.34857 16.0457 0 0 0 0 1 3
204 1 4.45714 15.1543 0.891429 0 0 0 1 2
205 1 4.48899 16.9456 2.66696 1.00188 1.35463 -11.0873 1 1
206 1 6.28771 15.1759 2.68329 5.38218 -6.62395 -1.65882 1 1
207 1 6.24 16.9371 0.891429 0 0 0 1 2
208 1 7.16751 16.1 1.76816 -0.448485 0.317066 1.24232 1 1
209 1 5.35422 17.8364 1.79716 5.48266 4.07788 2.32166 1 1
210 1 8.90212 14.2631 1.78418 1.032 1.56003 -1.17475 1 1
211 1 7.13143 14.2629 0 0 0 0 1 3
212 1 8.02286 15.1543 0.891429 0 0 0 1 2
213 1 8.0498 16.9767 2.6333 -8.42649 -6.08576 7.81228 1 1
214 1 8.91429 16.0457 0 0 0 0 1 3
215 1 9.83523 15.136 2.69939 4.36918 2.71947 2.68774 1 1
216 1 9.80572 16.9371 0.891429 0 0 0 1 2
217 1 8.93071 17.86 1.77211 2.22149 -4.36161 -5.82427 1 1
218 1 10.7107 16.0464 1.82065 -5.94057 8.37707 4.5921 1 1
219 1 10.6971 14.2629 0 0 0 0 1 3
220 1 12.48 16.0457 0 0 0 0 1 3
221 1 11.5886 15.1543 0.891429 0 0 0 1 2
222 1 11.6235 16.9359 2.72057 0.0548847 5.80835 1.23795 1 1
223 1 13.3637 15.2 2.74194 1.89358 1.87138 -1.15439 1 1
224 1 13.3714 16.9371 0.891429 0 0 0 1 2
225 1 12.4607 17.8282 1.78218 0.820813 6.3367 -5.95671 1 1
226 1 16.0159 14.2745 1.82125 2.63131 -3.85676 10.9329 1 1
227 1 14.2639 16.0553 1.78882 10.0842 -2.09724 3.27179 1 1
228 1 14.2629 14.2629 0 0 0 0 1 3
229 1 16.0457 16.0457 0 0 0 0 1 3
230 1 15.1543 15.1543 0.891429 0 0 0 1 2
231 1 15.1321 16.9421 2.73395 -5.51953 3.47943 -2.80195 1 1
232 1 16.9673 15.1907 2.64074 -4.55147 -2.83322 -5.18337 1 1
233 1 16.9371 16.9371 0.891429 0 0 0 1 2
234 1 17.8198 16.0471 1.78446 -0.303983 7.10643 3.47347 1 1
235 1 17.8286 14.2629 0 0 0 0 1 3
236 1 19.6114 16.0457 0 0 0 0 1 3
237 1 18.72 15.1543 0.891429 0 0 0 1 2
238 1 18.7063 16.9399 2.68461 -1.1829 -2.64926 0.46808 1 1
239 1 20.4919 15.1273 2.72013 -0.116227 2.83579 4.85347 1 1
240 1 20.5029 16.9371 0.891429 0 0 0 1 2
241 1 19.5963 17.8503 1.77081 1.22127 8.57139 -1.01348 1 1
242 1 1.73324 17.849 1.80269 7.04209 -0.812534 0.764412 1 1
243 1 0 17.8286 0 0 0 0 1 3
244 1 1.78286 19.6114 0 0 0 0 1 3
245 1 0.891429 18.72 0.891429 0 0 0 1 2
246 1 0.896403 20.4777 2.70461 -0.093231 0.208031 -3.81588 1 1
247 1 2.6111 18.748 2.71734 0.479404 -5.30434 -4.20357 1 1
248 1 2.67429 20.5029 0.891429 0 0 0 1 2
249 1 3.5767 19.6413 1.84248 1.1623 4.42201 0.766771 1 1
250 1 21.3633 19.592 1.78001 -2.58267 1.71385 -0.941983 1 1
251 1 5.36298 21.4151 1.77052 -3.63184 8.63259 4.07574 1 1
252 1 3.56572 17.8286 0 0 0 0 1 3
253 1 5.34857 19.6114 0 0 0 0 1 3
254 1 4.45714 18.72 0.891429 0 0 0 1 2
255 1 4.45135 20.5208 2.74647 -9.37481 -1.97227 2.8151 1 1
256 1 6.22573 18.7005 2.69532 3.63268 2.32563 0.968836 1 1
257 1 6.24 20.5029 0.891429 0 0 0 1 2
258 1 7.11484 19.6132 1.7864 5.56369 -0.0609589 1.18588 1 1
259 1 7.13143 17.8286 0 0 0 0 1 3
260 1 8.02286 18.72 0.891429 0 0 0 1 2
261 1 8.00493 20.4996 2.67164 1.74109 -4.91949 6.698 1 1
262 1 8.91429 19.6114 0 0 0 0 1 3
263 1 9.82094 18.7138 2.70004 -3.10843 -4.28152 3.80572 1 1
264 1 9.80572 20.5029 0.891429 0 0 0 1 2
265 1 10.6759 19.6277 1.77645 3.27936 0.181036 3.23994 1 1
266 1 12.5133 21.3652 1.8081 -1.65027 -1.14102 5.5605 1 1
267 1 10.6971 17.8286 0 0 0 0 1 3
268 1 12.48 19.6114 0 0 0 0 1 3
269 1 11.5886 18.72 0.891429 0 0 0 1 2
270 1 11.5365 20.5324 2.68788 1.08862 5.30162 9.39877 1 1
271 1 13.3479 18.7108 2.66974 5.40166 -5.28532 -0.780409 1 1
272 1 13.3714 20.5029 0.891429 0 0 0 1 2
273 1 14.2895 19.611 1.78771 0.828256 7.87486 8.22685 1 1
274 1 16.0397 17.8254 1.78703 3.85678 -7.98263 1.87 1 1
275 1 14.2629 17.8286 0 0 0 0 1 3
276 1 16.0457 19.6114 0 0 0 0 1 3
277 1 15.1543 18.72 0.891429 0 0 0 1 2
278 1 15.1667 20.5169 2.67635 -0.451224 6.06626 9.17301 1 1
279 1 16.9159 18.7192 2.68263 -4.32771 4.5874 -2.69932 1 1
280 1 16.9371 20.5029 0.891429 0 0 0 1 2
281 1 19.5777 -0.00924814 1.79567 9.55748 -2.58199 -0.208695 1 1
282 1 17.848 19.613 1.79099 -2.01858 7.83577 2.81711 1 1
283 1 17.8286 17.8286 0 0 0 0 1 3
284 1 19.6114 19.6114 0 0 0 0 1 3
285 1 18.72 18.72 0.891429 0 0 0 1 2
286 1 18.6994 20.5131 2.66005 7.99354 3.63385 -3.08215 1 1
287 1 20.5258 18.705 2.64469 -2.74763 -3.58245 2.24003 1 1
288 1 20.5029 20.5029 0.891429 0 0 0 1 2
289 1 1.74514 1.80932 3.59606 -3.5872 9.30193 0.689668 1 1
290 1 0.853146 0.88412 4.46266 7.78251 -2.07048 4.00211 1 1
291 1 2.65434 2.7292 4.46032 -5.5353 -3.23661 -1.37011 1 1
292 1 1.74575 21.3878 5.351 8.52962 0.577125 0.893913 1 1
293 1 1.78211 3.57827 5.35438 4.63155 -6.16584 0.611182 1 1
294 1 21.3897 1.84542 5.39641 8.04523 -1.00697 -3.42784 1 1
295 1 0.00207823 21.3645 3.61348 -5.15903 -4.40999 6.23843 1 1
296 1 3.56517 1.85187 5.4263 -3.37091 7.82055 -3.1665 1 1
297 1 5.3414 1.73029 3.58655 2.73182 -4.39957 0.8321 1 1
298 1 4.42515 0.906485 4.52768 2.18776 6.32499 3.84388 1 1
299 1 6.23264 0.939194 6.25074 0.64453 5.56347 -3.43648 1 1
300 1 6.21783 2.64447 4.53212 -2.32678 -5.498 -6.96986 1 1
301 1 3.55793 0.0237836 3.59733 0.537468 0.144476 -8.69332 1 1
302 1 7.13692 0.00156601 3.61092 -4.76789 -1.96417 5.82706 1 1
303 1 5.32493 0.0218817 5.34503 -6.33574 -3.34857 2.67216 1 1
304 1 7.14645 3.56265 3.63892 4.34825 2.86255 0.0591432 1 1
305 1 7.08293 1.76276 5.38789 -1.0391 -3.07074 -3.32581 1 1
306 1 8.91472 1.77293 3.58119 0.101286 1.95734 -1.51054 1 1
307 1 7.99633 0.901474 4.48736 1.31151 -4.54721 2.45999 1 1
308 1 7.98743 2.6506 6.21655 -1.3321 1.21354 -1.12547 1 1
309 1 9.76306 0.861809 6.23283 -2.74683 5.26461 4.55732 1 1
310 1 9.803 2.66226 4.47604 7.50869 -0.868012 -0.369323 1 1
311 1 10.6989 1.778 5.38554 6.17016 -5.27088 3.49004 1 1
312 1 12.4631 1.76085 3.63194 -0.573613 3.29665 -5.63623 1 1
313 1 11.5768 0.872427 4.52045 2.94613 0.55211 -1.50241 1 1
314 1 11.5306 2.63054 6.27545 8.28017 1.37057 0.718546 1 1
315 1 13.322 2.69417 4.49205 3.04094 -2.05059 3.46578 1 1
316 1 13.3319 0.89679 6.32372 1.35647 -1.19575 9.72825 1 1
317 1 12.4301 3.51468 5.4265 -12.4005 4.84328 2.70133 1 1
318 1 14.2587 1.79974 5.39958 -1.41991 1.43272 -0.968868 1 1
319 1 12.4567 0.006993 5.41122 1.73013 -2.85469 -0.287375 1 1
320 1 14.2563 3.59159 3.61708 0.130102 -2.06569 2.59433 1 1
321 1 16.0948 1.80726 3.59858 -0.149696 5.75421 8.19838 1 1
322 1 15.1488 0.892612 4.4832 8.48712 -2.29854 -1.51788 1 1
323 1 15.125 2.64344 6.23166 2.41671 -1.95611 1.39583 1 1
324 1 16.9249 2.68752 4.46391 0.533246 0.779967 -1.5296 1 1
325 1 17.8127 1.8207 5.37141 -4.46015 0.5918 -2.28321 1 1
326 1 16.0515 0.0101913 5.37724 -4.98674 -2.11778 -1.97389 1 1
327 1 19.652 1.77707 3.61354 1.65013 5.06948 -0.661228 1 1
328 1 18.7228 0.88255 4.49701 5.51098 -6.59405 -1.04313 1 1
329 1 20.5062 2.72448 4.48911 1.14221 8.28288 -1.29273 1 1
330 1 17.7984 21.4108 3.55626 -8.08595 10.0887 -3.8988 1 1
331 1 19.5825 0.0209435 5.3757 6.79622 -0.777729 -9.8275 1 1
332 1 0.0368578 3.6208 3.60451 -0.0552339 -5.17108 6.32556 1 1
333 1 1.75892 5.30584 3.56112 -7.26275 -4.31773 -3.34066 1 1
334 1 0.908198 4.46134 4.51185 -2.21464 4.59947 0.581998 1 1
335 1 2.67756 4.38293 6.27695 -1.20397 5.63161 3.99494 1 1
336 1 2.68738 6.21512 4.48412 -3.51543 -0.660184 -2.81738 1 1
337 1 3.59012 3.55597 3.59182 -0.268693 -1.43685 4.94396 1 1
338 1 0.00672164 5.3617 5.42436 -0.759747 -5.55546 -5.5228 1 1
339 1 3.55932 5.31594 5.38406 -4.92264 0.591508 -3.31095 1 1
340 1 5.32737 3.54821 5.39856 -6.89388 -1.1396 -1.50715 1 1
341 1 5.38247 5.36937 3.62108 -5.97206 -6.02986 2.66461 1 1
342 1 4.44908 4.47291 4.51166 14.4338 -6.04487 -4.43242 1 1
343 1 4.40088 6.23485 6.23642 -0.034618 3.06067 2.46906 1 1
344 1 6.23648 6.25767 4.49393 -0.657789 -2.8374 1.86405 1 1
345 1 7.11064 5.38251 5.37418 1.72158 1.64321 2.28957 1 1
346 1 5.33649 7.13573 5.3306 2.07845 -1.49982 2.73868 1 1
347 1 6.23492 4.47905 6.25647 4.90615 -0.615298 -2.97305 1 1
348 1 8.9108 3.52906 5.37616 4.79226 1.17909 -1.42197 1 1
349 1 10.6861 3.5757 3.59653 -3.66326 0.352416 -3.75457 1 1
350 1 8.86276 5.37644 3.57767 -2.10052 5.67427 7.823 1 1
351 1 8.01272 4.46231 4.49163 -0.724459 0.167058 3.1125 1 1
352 1 7.98361 6.25492 6.25631 -6.49192 -5.93509 -8.18113 1 1
353 1 9.78749 4.45406 6.27132 7.45742 0.104245 6.96555 1 1
354 1 9.75724 6.28665 4.44268 -4.90472 2.43395 -0.513086 1 1
355 1 10.6866 5.38714 5.36458 1.36647 -0.278938 -0.00802815 1 1
356 1 12.4682 5.36839 3.58003 -3.74467 7.39931 -3.51208 1 1
357 1 11.5677 4.42602 4.49596 -4.15326 7.6959 -1.8022 1 1
358 1 13.3801 6.29914 4.48584 6.50381 -2.06343 -0.975708 1 1
359 1 14.2416 5.3494 5.40141 1.01134 0.763908 0.283892 1 1
360 1 16.0848 3.56093 5.33276 -1.28348 -8.80928 2.38653 1 1
361 1 17.8316 3.57844 3.60062 2.68489 6.28934 0.250674 1 1
362 1 16.0971 5.38588 3.60305 -6.31722 -3.62115 5.81914 1 1
363 1 15.1574 4.50576 4.48895 -4.82816 0.409818 -5.90769 1 1
364 1 16.9345 6.27525 4.52354 1.40914 4.89326 9.89874 1 1
365 1 16.9271 4.46152 6.28433 -3.25328 -3.50585 3.48746 1 1
366 1 15.9869 7.15661 5.38901 -5.81502 3.61756 -0.508614 1 1
367 1 15.1354 6.23075 6.29411 -0.692831 -0.59393 -2.79153 1 1
368 1 19.5996 3.57874 5.44957 3.72298 -3.54944 12.7551 1 1
369 1 17.8175 5.30471 5.41349 4.58952 -1.09268 3.9899 1 1
370 1 19.6194 5.36346 3.65303 -3.25856 -5.19121 1.68582 1 1
371 1 18.7506 4.476 4.51267 3.78091 1.41226 -7.48785 1 1
372 1 20.5275 4.44925 6.30022 2.19639 4.6923 2.11209 1 1
373 1 20.4803 6.23397 4.54349 5.6634 -0.248552 -0.564052 1 1
374 1 19.5611 7.12992 5.45477 4.00883 -5.0316 -4.00334 1 1
375 1 21.3627 7.13003 3.65228 3.45794 10.2806 1.88321 1 1
376 1 1.77416 7.07202 5.38178 1.07007 1.15762 -4.25568 1 1
377 1 1.79248 8.95703 3.60118 2.8782 1.76178 -6.2919 1 1
378 1 0.904091 8.06678 4.52698 3.94732 -0.513068 7.88191 1 1
379 1 2.69973 8.03917 6.28426 0.774486 -0.944473 7.54282 1 1
380 1 0.862277 9.79564 6.29696 0.876012 -5.55227 1.15558 1 1
381 1 2.65973 9.77822 4.53055 1.07558 1.90133 6.11766 1 1
382 1 21.3877 8.92968 5.41306 1.72496 -0.117959 -0.0525565 1 1
383 1 1.80021 10.6829 5.40613 5.88333 2.10915 -3.26433 1 1
384 1 3.55489 7.13673 3.60461 5.34619 3.65957 3.21435 1 1
385 1 7.16299 7.19834 3.5651 -5.11817 3.18567 0.695706 1 1
386 1 3.5794 10.7009 3.55259 1.67605 3.05956 -6.93333 1 1
387 1 3.60793 8.9011 5.33102 2.02003 -0.467403 -1.26907 1 1
388 1 5.32347 8.93615 3.49616 1.61274 -5.02962 0.342268 1 1
389 1 4.44324 7.99019 4.43796 -3.66145 4.22478 -6.88044 1 1
390 1 4.48189 9.79275 6.25906 -5.27203 3.71573 0.658658 1 1
391 1 6.18986 9.79213 4.47996 -2.20233 4.80496 2.64776 1 1
392 1 8.8395 7.19038 5.35035 -3.51401 -4.61006 0.359424 1 1
393 1 7.09051 8.91956 5.36236 -7.00679 0.361566 2.21109 1 1
394 1 8.87574 8.96821 3.56341 -1.41219 -2.27206 -3.67925 1 1
395 1 7.97651 8.10323 4.47367 -0.0860181 -13.2264 -6.54549 1 1
396 1 9.79289 9.82258 4.46728 3.23515 4.76188 -1.24458 1 1
397 1 10.6558 8.90806 5.40014 -3.84223 0.708557 1.76731 1 1
398 1 10.7215 10.689 3.62257 11.2293 5.44334 10.2562 1 1
399 1 9.77082 8.04391 6.26552 -3.04048 -1.24653 1.49212 1 1
400 1 12.4245 7.14615 5.38714 2.36121 -1.84949 6.83143 1 1
401 1 10.7288 7.15306 3.61038 -5.80285 -1.64326 -2.88699 1 1
402 1 12.4749 8.89787 3.61723 -0.687991 -2.64196 1.58586 1 1
403 1 11.615 8.03851 4.53032 -3.62304 1.75443 5.92187 1 1
404 1 13.4346 9.77045 4.45991 3.82353 1.71073 0.0849149 1 1
405 1 14.2618 7.13688 3.58153 5.14761 5.57043 2.98333 1 1
406 1 14.2504 8.8895 5.41979 -5.67813 -1.83609 -4.57295 1 1
407 1 17.8309 7.1254 3.58366 1.54277 2.73772 -2.42776 1 1
408 1 16.0295 8.88947 3.61321 3.24608 -0.248094 3.2035 1 1
409 1 15.099 8.03312 4.4504 1.95966 -9.9497 -4.68546 1 1
410 1 16.9302 9.77282 4.52551 3.95141 -10.3119 5.0139 1 1
411 1 16.0418 10.6943 5.38697 0.281319 -9.12195 -1.21027 1 1
412 1 16.858 7.98601 6.33008 4.45316 -0.889234 1.60683 1 1
413 1 17.782 8.87153 5.41301 -4.95131 3.51551 -4.83492 1 1
414 1 19.5545 8.91974 3.63162 -2.1696 -3.13527 3.22358 1 1
415 1 18.6831 7.99661 4.52107 6.98566 -6.04413 2.95845 1 1
416 1 18.6451 9.7644 6.25159 -4.93646 9.20968 4.58972 1 1
417 1 20.5064 9.85678 4.48804 -6.13904 0.379933 -0.523709 1 1
418 1 20.507 8.00187 6.29666 2.40505 -7.17092 3.54588 1 1
419 1 19.5534 10.6896 5.37166 8.38739 3.46209 1.03643 1 1
420 1 -0.020004 10.7392 3.57452 -4.12304 2.97979 -4.58852 1 1
421 1 1.74336 12.471 3.59116 7.19862 -1.28926 0.58665 1 1
422 1 0.909428 11.6049 4.51385 4.16007 -3.96714 1.30246 1 1
423 1 2.61584 11.5914 6.26441 1.59903 -4.37503 -1.97381 1 1
424 1 0.87319 13.3578 6.24925 -3.33445 -0.389683 -3.06564 1 1
425 1 2.68545 13.3317 4.46208 5.47809 -4.74443 -3.52814 1 1
426 1 21.3486 12.489 5.39202 4.05972 0.014482 3.77409 1 1
427 1 5.31048 10.6842 5.36526 -2.45015 2.03174 -7.93142 1 1
428 1 3.55829 14.3114 3.5734 1.31951 7.48418 3.29919 1 1
429 1 3.53417 12.4833 5.40337 2.32894 -1.33817 -0.958181 1 1
430 1 5.35229 12.4878 3.60686 1.78298 9.63436 -0.0235163 1 1
431 1 4.39992 11.6136 4.50366 0.799234 -0.534984 -6.88987 1 1
432 1 6.24561 13.335 4.4758 1.33314 -0.917046 6.24047 1 1
433 1 7.15985 14.2828 3.52895 -0.154748 2.49659 -1.29206 1 1
434 1 6.2022 11.5544 6.28608 -4.93331 -3.32814 -0.557896 1 1
435 1 7.1245 10.7111 3.60517 4.77733 1.47317 7.44452 1 1
436 1 7.12497 12.4551 5.33627 -5.89976 2.03066 0.0871715 1 1
437 1 8.96508 10.7026 5.41279 2.55442 4.68769 5.13148 1 1
438 1 8.90973 12.4781 3.5801 -4.3392 0.767022 -2.17127 1 1
439 1 7.99256 11.5574 4.4834 -7.51584 -3.30245 -10.7258 1 1
440 1 9.80358 11.6054 6.30264 -2.44649 -3.0561 7.09613 1 1
441 1 7.9649 13.3654 6.27005 -7.9603 5.9604 0.353569 1 1
442 1 9.79384 13.3945 4.50926 2.9236 3.15259 3.0073 1 1
443 1 10.7145 14.2093 3.60979 2.8689 5.41075 0.736772 1 1
444 1 12.4813 10.6231 5.41119 8.34258 2.85391 -1.15744 1 1
445 1 10.6843 12.4731 5.34658 1.68442 6.44798 -10.4782 1 1
446 1 12.5255 12.4306 3.60709 0.472906 8.50814 3.67079 1 1
447 1 11.6079 11.5586 4.48638 0.218028 1.52032 0.68734 1 1
448 1 13.3438 11.5471 6.29716 -4.45312 -0.969132 -0.0966952 1 1
449 1 11.6212 13.3619 6.22608 -9.86507 4.30549 8.07566 1 1
450 1 13.3982 13.3836 4.46987 2.56685 3.58363 -3.31435 1 1
451 1 14.284 10.672 3.57278 3.06476 -3.44881 1.96502 1 1
452 1 14.2383 12.4443 5.39092 -5.43706 -2.67293 -5.90379 1 1
453 1 16.1014 12.4729 3.625 -5.63479 -4.36355 0.469116 1 1
454 1 15.1429 11.5711 4.48228 2.79779 -2.90676 2.57985 1 1
455 1 16.9734 11.6118 6.28972 -1.59141 -5.26519 6.04405 1 1
456 1 16.9379 13.3745 4.47973 2.55083 1.54864 -1.32339 1 1
457 1 17.7937 12.4961 5.37015 8.1233 -10.1198 2.35822 1 1
458 1 15.1719 13.3389 6.24055 3.15664 -5.32598 0.41837 1 1
459 1 17.7937 10.6311 3.63604 -2.3368 -5.40955 5.82676 1 1
460 1 19.5614 12.4849 3.58832 0.902838 -3.22777 -0.363792 1 1
461 1 18.6576 11.6161 4.4721 2.00794 -1.59075 2.50093 1 1
462 1 18.7098 13.4016 6.24085 -1.78443 5.22441 1.77945 1 1
463 1 20.4856 13.3689 4.50414 -1.05207 -1.88234 -8.75437 1 1
464 1 20.4654 11.5641 6.26641 7.2574 0.421154 -8.41915 1 1
465 1 1.75013 14.2285 5.33102 0.891084 -2.90278 0.293432 1 1
466 1 1.77112 16.0488 3.54208 2.68174 0.822085 -5.02279 1 1
467 1 0.867924 15.1408 4.47326 -1.03963 -11.1074 5.19635 1 1
468 1 2.65372 15.1404 6.25039 0.519072 -1.88389 2.09852 1 1
469 1 2.68047 16.9049 4.42825 -1.52997 -2.77065 3.27386 1 1
470 1 0.0273949 16.001 5.37089 2.39325 -1.24921 2.81594 1 1
471 1 21.3504 14.2433 3.61193 9.57562 -10.0233 -1.58952 1 1
472 1 1.77945 17.7884 5.35642 -5.00825 -3.87558 1.20765 1 1
473 1 5.34781 14.2349 5.36273 8.94782 -6.49575 -3.37967 1 1
474 1 3.556 16.051 5.3839 -4.14261 -3.08476 1.94608 1 1
475 1 5.36142 16.0743 3.57675 -4.68413 1.17637 0.168383 1 1
476 1 4.47034 15.1614 4.49797 -5.68888 3.53542 1.8286 1 1
477 1 4.4154 16.9624 6.24701 -5.87907 1.16855 2.61895 1 1
478 1 6.17578 15.1503 6.19613 4.85111 -14.3766 -1.70302 1 1
479 1 6.2568 16.9915 4.47972 9.09298 5.28663 -6.37888 1 1
480 1 7.10719 16.0162 5.33393 -1.84379 -5.5302 -2.81216 1 1
481 1 8.86002 14.2855 5.37361 3.80777 0.340204 1.81072 1 1
482 1 8.91311 16.0554 3.58583 1.13189 7.54428 -4.34133 1 1
483 1 8.05932 15.1649 4.44911 4.47114 4.59203 -4.75665 1 1
484 1 8.05288 16.9377 6.23599 -2.72689 4.23737 7.14056 1 1
485 1 9.81675 15.1638 6.26171 2.83899 -3.04847 -2.76966 1 1
486 1 9.81179 16.9483 4.51109 -4.82753 -2.81534 1.97444 1 1
487 1 10.7468 16.0596 5.36458 -2.88349 -0.65579 -4.1413 1 1
488 1 8.89489 17.8641 5.37183 -0.635608 -1.91628 5.38363 1 1
489 1 10.7229 17.8518 3.60321 -4.3698 5.64642 4.23789 1 1
490 1 12.5049 14.2674 5.36018 0.424768 3.75978 4.36585 1 1
491 1 12.4958 16.0824 3.60826 2.23527 -4.16869 0.895861 1 1
492 1 11.624 15.138 4.48141 -0.579301 -7.22653 -2.54344 1 1
493 1 11.5849 16.957 6.26733 -2.18062 0.0653287 -2.17013 1 1
494 1 13.3453 16.9674 4.52421 0.322737 5.5219 -2.8372 1 1
495 1 13.336 15.1414 6.26744 -12.1833 2.82572 -6.26469 1 1
496 1 12.5 17.8529 5.41314 1.35687 -4.17668 0.942617 1 1
497 1 14.2591 14.271 3.61541 5.9373 -7.47466 0.156765 1 1
498 1 16.0443 14.2455 5.38227 1.84701 -4.67176 -1.54373 1 1
499 1 17.8559 14.2823 3.57411 -3.66202 1.78794 2.25697 1 1
500 1 14.237 16.006 5.39303 1.89821 5.06383 9.80434 1 1
501 1 14.2421 17.842 3.61545 -4.27128 -4.23064 -4.2998 1 1
502 1 16.0662 16.0402 3.58742 -2.65578 0.813434 0.0378967 1 1
503 1 15.1657 15.1647 4.48561 -1.52209 2.15489 -0.662071 1 1
504 1 16.948 16.9615 4.47402 -3.49227 0.486203 0.727279 1 1
505 1 16.9136 15.1916 6.25994 -5.78231 -1.81906 -0.741433 1 1
506 1 17.7924 16.105 5.38096 -4.03798 -2.79146 -0.356883 1 1
507 1 19.569 14.3039 5.3492 -7.91207 6.65363 -3.28476 1 1
508 1 19.5736 16.0373 3.607 5.72736 -3.98451 -3.5342 1 1
509 1 18.6581 15.1967 4.48984 0.15857 6.64705 6.81602 1 1
510 1 20.5109 16.9077 4.4874 2.71881 -2.12621 -3.73138 1 1
511 1 19.6034 17.8366 5.39399 -5.55407 3.28424 1.89301 1 1
512 1 20.5145 15.1944 6.2635 -7.1451 0.0575849 7.64178 1 1
513 1 1.76217 19.6173 3.61495 2.77109 4.06576 -3.18705 1 1
514 1 0.895125 18.7026 4.48919 -1.99256 -1.81991 2.7179 1 1
515 1 0.859565 20.5139 6.20967 1.17631 -0.7879 4.49455 1 1
516 1 2.67533 20.5041 4.47925 -3.5234 9.79729 -4.19213 1 1
517 1 21.3395 17.8689 3.61133 -3.79354 -10.0729 -10.2415 1 1
518 1 21.3709 19.6221 5.37013 1.11905 -6.92182 -1.7672 1 1
519 1 2.65986 18.6941 6.23551 12.1137 -2.56372 -3.18251 1 1
520 1 5.31825 17.8644 5.35675 -3.78194 0.640724 3.17485 1 1
521 1 3.54271 17.842 3.57455 2.60245 -4.63506 -7.03527 1 1
522 1 3.54642 19.663 5.38646 -1.60974 -4.53414 8.9311 1 1
523 1 5.40155 19.619 3.55312 -7.14243 -2.12186 12.1056 1 1
524 1 4.43305 18.7665 4.40755 -0.426777 -3.18353 -0.781379 1 1
525 1 4.43687 20.5246 6.22616 0.0883282 -1.86034 2.62492 1 1
526 1 6.20761 18.7537 6.27307 -4.58618 7.03719 -0.365146 1 1
527 1 6.25974 20.5157 4.48688 2.69761 -1.64147 3.13212 1 1
528 1 7.15368 17.8259 3.63629 9.06734 1.10582 9.19406 1 1
529 1 7.09464 19.6264 5.3483 3.65154 3.67607 0.405127 1 1
530 1 8.87053 0.0167023 5.35808 1.04868 -3.21802 2.09725 1 1
531 1 8.92285 19.6254 3.57506 -3.41521 -2.38782 6.83165 1 1
532 1 8.00184 18.7466 4.49864 3.59597 11.5777 -7.83399 1 1
533 1 7.95297 20.524 6.24482 11.7019 -0.143844 -5.77177 1 1
534 1 9.78076 18.762 6.24282 -5.0113 -0.211592 1.62327 1 1
535 1 9.81793 20.4806 4.45607 -3.48574 4.63854 -7.48303 1 1
536 1 10.7 19.6258 5.36492 -7.17025 3.50101 -0.892218 1 1
537 1 10.717 21.3856 3.61458 -3.4551 5.87048 4.44219 1 1
538 1 12.4897 19.5975 3.55843 -3.93707 -3.13777 -1.46108 1 1
539 1 11.5996 18.7551 4.4761 1.43653 -0.772102 3.34869 1 1
540 1 13.4192 18.7024 6.26755 5.99367 6.86181 -0.440262 1 1
541 1 13.3403 20.5257 4.48092 4.70118 5.3991 -1.41017 1 1
542 1 16.0334 17.7949 5.39776 1.0767 -4.56639 -6.53896 1 1
543 1 14.2398 21.4096 3.54641 5.26293 7.41678 1.99032 1 1
544 1 14.2375 19.6431 5.40602 -2.33226 1.04363 -0.389867 1 1
545 1 16.0457 19.6098 3.60863 3.23906 5.53193 5.66719 1 1
546 1 15.0853 18.7187 4.44606 -1.63466 7.1648 0.694933 1 1
547 1 16.873 18.757 6.28572 -2.69557 1.7872 -2.55487 1 1
548 1 16.9562 20.4885 4.46429 3.14047 5.90469 -0.0553434 1 1
549 1 17.7858 19.5821 5.38067 4.17043 -0.430204 6.05646 1 1
550 1 17.8429 17.859 3.57798 4.51992 -0.617547 -1.81479 1 1
551 1 19.6141 19.6306 3.56328 0.190075 -1.66819 4.21741 1 1
552 1 18.7608 18.7045 4.47403 1.70122 -4.57353 2.31356 1 1
553 1 18.7221 20.4936 6.28671 0.704703 5.25784 -1.31347 1 1
554 1 20.4938 18.7206 6.25024 -0.662354 -4.81894 -0.0213784 1 1
555 1 20.5245 20.4936 4.51418 1.26864 5.77395 -10.2128 1 1
556 1 2.62989 0.919704 6.27542 -2.22375 0.077244 -4.18233 1 1