ITEM: TIMESTEP
2450
ITEM: NUMBER OF ATOMS
2952
ITEM: BOX BOUNDS pp pp mm
0.0000000000000000e+00 2.1394294200000001e+01
0.0000000000000000e+00 2.1394294200000001e+01
-4.4571446250000002e-01 5.3485735500000004e+01
ITEM: ATOMS id type x y z vx vy vz v_is_diamond c_structure_type
1 1 0 0 0 0 0 0 1 3
2 1 1.78286 1.78286 0 0 0 0 1 3
3 1 0.891429 0.891429 0.891429 0 0 0 1 2
4 1 0.882811 2.69142 2.66624 3.04263 0.876559 3.14843 1 1
5 1 2.6567 0.876622 2.69096 9.5174 -9.09913 1.06631 1 1
6 1 2.67429 2.67429 0.891429 0 0 0 1 2
7 1 21.389 1.74461 1.76542 2.35801 0.572024 3.02469 1 1
8 1 1.7759 21.3879 1.79519 -0.384717 2.03908 4.34934 1 1
9 1 1.76273 3.55454 1.81425 -5.01419 -1.17175 1.09787 1 1
10 1 3.55841 1.78318 1.78058 -4.71926 3.95849 -0.372941 1 1
11 1 3.56572 0 0 0 0 0 1 3
12 1 5.34857 1.78286 0 0 0 0 1 3
13 1 4.45714 0.891429 0.891429 0 0 0 1 2
14 1 4.48429 2.60896 2.68347 1.43408 0.197674 -0.307029 1 1
15 1 6.23913 0.866226 2.68212 -6.3527 2.12679 -3.00464 1 1
16 1 6.24 2.67429 0.891429 0 0 0 1 2
17 1 7.09742 1.78276 1.76635 6.29535 -6.33696 -0.309124 1 1
18 1 7.13143 0 0 0 0 0 1 3
19 1 8.02286 0.891429 0.891429 0 0 0 1 2
20 1 8.03679 2.62946 2.68413 -4.40668 -10.0525 -2.87646 1 1
21 1 8.91429 1.78286 0 0 0 0 1 3
22 1 9.79319 0.859545 2.7123 -0.553015 4.10204 6.65647 1 1
23 1 9.80572 2.67429 0.891429 0 0 0 1 2
24 1 8.91276 21.3915 1.80208 5.56643 4.37493 -1.99721 1 1
25 1 10.7107 1.73152 1.81674 3.22791 1.50017 2.42955 1 1
26 1 10.6971 0 0 0 0 0 1 3
27 1 12.48 1.78286 0 0 0 0 1 3
28 1 11.5886 0.891429 0.891429 0 0 0 1 2
29 1 11.6016 2.67503 2.67784 -6.02685 3.46109 -3.25447 1 1
30 1 13.408 0.941627 2.70244 -7.49472 -2.1002 1.36332 1 1
31 1 13.3714 2.67429 0.891429 0 0 0 1 2
32 1 14.3054 1.78906 1.768 -0.428752 -3.16685 4.11352 1 1
33 1 14.2629 0 0 0 0 0 1 3
34 1 16.0457 1.78286 0 0 0 0 1 3
35 1 15.1543 0.891429 0.891429 0 0 0 1 2
36 1 15.1865 2.66482 2.75623 -11.4631 0.331331 -3.52701 1 1
37 1 16.9315 0.851083 2.69886 -3.49984 -6.20675 1.25276 1 1
38 1 16.9371 2.67429 0.891429 0 0 0 1 2
39 1 16.0681 21.3581 1.80104 -4.3031 2.82441 8.68703 1 1
40 1 17.7894 1.79975 1.7845 4.84247 -5.18778 -0.966607 1 1
41 1 17.8286 0 0 0 0 0 1 3
42 1 19.6114 1.78286 0 0 0 0 1 3
43 1 18.72 0.891429 0.891429 0 0 0 1 2
44 1 18.7052 2.66334 2.64173 3.13263 1.88282 2.45188 1 1
45 1 20.4952 0.888561 2.68856 4.15421 -7.43694 8.47816 1 1
46 1 20.5029 2.67429 0.891429 0 0 0 1 2
47 1 0 3.56572 0 0 0 0 1 3
48 1 1.78286 5.34857 0 0 0 0 1 3
49 1 0.891429 4.45714 0.891429 0 0 0 1 2
50 1 0.864197 6.20166 2.71232 -2.8915 1.51159 0.314005 1 1
51 1 2.65939 4.46508 2.6538 -1.47803 1.24579 -6.52908 1 1
52 1 2.67429 6.24 0.891429 0 0 0 1 2
53 1 3.51561 5.37043 1.74658 -1.78773 -0.171287 0.591304 1 1
54 1 5.34995 3.52412 1.79256 4.58774 4.09161 -0.859955 1 1
55 1 3.56572 3.56572 0 0 0 0 1 3
56 1 5.34857 5.34857 0 0 0 0 1 3
57 1 4.45714 4.45714 0.891429 0 0 0 1 2
58 1 4.39521 6.25306 2.66959 3.94515 -3.26208 -13.5824 1 1
59 1 6.24684 4.46632 2.63525 -1.82162 -2.04434 -7.66085 1 1
60 1 6.24 6.24 0.891429 0 0 0 1 2
61 1 5.309 7.11502 1.81484 0.190886 -8.2495 9.91059 1 1
62 1 7.13138 5.35893 1.74574 -8.88344 2.64624 6.97884 1 1
63 1 7.13143 3.56572 0 0 0 0 1 3
64 1 8.96881 3.55858 1.78741 2.18301 4.27585 -4.80912 1 1
65 1 8.02286 4.45714 0.891429 0 0 0 1 2
66 1 8.02771 6.21979 2.64862 -2.17186 4.92206 -1.09065 1 1
67 1 8.91429 5.34857 0 0 0 0 1 3
68 1 9.84914 4.51097 2.71038 -9.02642 -1.00753 2.46335 1 1
69 1 9.80572 6.24 0.891429 0 0 0 1 2
70 1 10.7007 5.35011 1.73202 6.0475 1.12652 -4.3173 1 1
71 1 12.4823 3.58001 1.78247 -1.34384 5.3833 2.19699 1 1
72 1 10.6971 3.56572 0 0 0 0 1 3
73 1 12.48 5.34857 0 0 0 0 1 3
74 1 11.5886 4.45714 0.891429 0 0 0 1 2
75 1 11.5828 6.28885 2.60443 6.74576 0.232511 6.27301 1 1
76 1 13.3793 4.46408 2.71524 -2.56582 4.64377 -5.58598 1 1
77 1 13.3714 6.24 0.891429 0 0 0 1 2
78 1 14.2511 5.36233 1.82011 -2.00014 0.659793 0.270783 1 1
79 1 16.0553 3.53115 1.80964 5.62156 -3.19222 0.808204 1 1
80 1 14.2629 3.56572 0 0 0 0 1 3
81 1 16.0457 5.34857 0 0 0 0 1 3
82 1 15.1543 4.45714 0.891429 0 0 0 1 2
83 1 15.1343 6.21888 2.70824 2.85612 6.97932 1.35652 1 1
84 1 16.9297 4.46485 2.66211 8.95413 0.722045 -3.16233 1 1
85 1 16.9371 6.24 0.891429 0 0 0 1 2
86 1 17.8474 5.33249 1.78422 0.0296586 -1.24066 -4.36977 1 1
87 1 19.5731 3.56687 1.77709 6.44554 -1.75209 2.98993 1 1
88 1 -0.0266585 5.31907 1.77301 0.182392 -0.780801 -0.110363 1 1
89 1 17.8286 3.56572 0 0 0 0 1 3
90 1 19.6114 5.34857 0 0 0 0 1 3
91 1 18.72 4.45714 0.891429 0 0 0 1 2
92 1 18.7116 6.22492 2.69519 -2.99271 2.64615 -1.97507 1 1
93 1 20.5287 4.42486 2.68466 -1.97104 2.88541 3.96472 1 1
94 1 20.5029 6.24 0.891429 0 0 0 1 2
95 1 19.6184 7.11069 1.78285 -0.667202 2.54273 2.73332 1 1
96 1 1.7233 7.10807 1.77904 1.07854 -2.24957 1.28474 1 1
97 1 0 7.13143 0 0 0 0 1 3
98 1 0.891429 8.02286 0.891429 0 0 0 1 2
99 1 2.63632 8.0018 2.68842 -0.350599 0.477172 -3.65059 1 1
100 1 1.78286 8.91429 0 0 0 0 1 3
101 1 0.845023 9.78163 2.65967 -3.17324 2.15622 4.46177 1 1
102 1 2.67429 9.80572 0.891429 0 0 0 1 2
103 1 1.75702 10.6838 1.80414 -2.13469 2.30357 3.07082 1 1
104 1 3.57688 8.90313 1.79694 -1.64265 -2.85638 -2.95167 1 1
105 1 3.56572 7.13143 0 0 0 0 1 3
106 1 4.45714 8.02286 0.891429 0 0 0 1 2
107 1 6.21859 8.03888 2.66384 6.00996 -5.26193 -2.19873 1 1
108 1 5.34857 8.91429 0 0 0 0 1 3
109 1 4.44625 9.81832 2.68174 -1.17886 5.54386 -8.13428 1 1
110 1 6.24 9.80572 0.891429 0 0 0 1 2
111 1 7.11965 8.90832 1.78115 -0.284785 -1.39953 5.97752 1 1
112 1 8.95657 7.08131 1.75991 6.79109 -2.06026 -4.3765 1 1
113 1 7.13143 7.13143 0 0 0 0 1 3
114 1 8.02286 8.02286 0.891429 0 0 0 1 2
115 1 9.79714 8.04497 2.68831 -5.95167 -2.01793 5.79538 1 1
116 1 7.99762 9.82924 2.65846 7.70559 -2.94927 -1.03932 1 1
117 1 8.91429 8.91429 0 0 0 0 1 3
118 1 9.80572 9.80572 0.891429 0 0 0 1 2
119 1 10.6941 8.91442 1.79246 -3.20496 -0.187581 -6.61417 1 1
120 1 12.4873 7.17709 1.76401 4.87123 -2.05667 1.96338 1 1
121 1 10.6971 7.13143 0 0 0 0 1 3
122 1 11.5886 8.02286 0.891429 0 0 0 1 2
123 1 13.3628 8.0204 2.67878 -7.93119 -6.39316 -9.94293 1 1
124 1 12.48 8.91429 0 0 0 0 1 3
125 1 11.586 9.79857 2.66066 4.94634 -4.88088 0.827205 1 1
126 1 13.3714 9.80572 0.891429 0 0 0 1 2
127 1 12.4806 10.667 1.78997 -11.3761 -1.81917 -1.14689 1 1
128 1 16.0284 7.12385 1.78364 0.545631 2.77198 -6.43897 1 1
129 1 14.2643 8.88287 1.80736 9.40582 1.52721 -11.0086 1 1
130 1 14.2629 7.13143 0 0 0 0 1 3
131 1 15.1543 8.02286 0.891429 0 0 0 1 2
132 1 16.9573 8.02319 2.69482 -10.2413 -2.57571 -12.6399 1 1
133 1 16.0457 8.91429 0 0 0 0 1 3
134 1 15.168 9.76141 2.70844 1.28942 1.33925 -2.71966 1 1
135 1 16.9371 9.80572 0.891429 0 0 0 1 2
136 1 16.044 10.622 1.83601 -5.13749 -1.60452 -1.09374 1 1
137 1 17.8273 8.92157 1.82655 1.9938 -0.442429 -13.0919 1 1
138 1 21.3669 8.93685 1.79746 -1.47161 1.41343 -3.82816 1 1
139 1 17.8286 7.13143 0 0 0 0 1 3
140 1 18.72 8.02286 0.891429 0 0 0 1 2
141 1 20.4962 8.01738 2.69016 5.75679 -10.5873 8.5152 1 1
142 1 19.6114 8.91429 0 0 0 0 1 3
143 1 18.7064 9.80573 2.67042 -0.403569 -0.653978 0.952873 1 1
144 1 20.5029 9.80572 0.891429 0 0 0 1 2
145 1 0 10.6971 0 0 0 0 1 3
146 1 1.78286 12.48 0 0 0 0 1 3
147 1 0.891429 11.5886 0.891429 0 0 0 1 2
148 1 2.64558 11.5683 2.74394 -0.794255 6.37457 -5.1491 1 1
149 1 0.906502 13.3436 2.70207 -4.83407 4.3762 0.304375 1 1
150 1 2.67429 13.3714 0.891429 0 0 0 1 2
151 1 0.0147619 12.485 1.78523 -7.74181 3.45847 5.08302 1 1
152 1 5.34669 10.7116 1.80038 0.1753 -5.80658 1.54271 1 1
153 1 3.52165 12.4666 1.79359 0.679971 -0.977018 -1.29481 1 1
154 1 3.56572 10.6971 0 0 0 0 1 3
155 1 5.34857 12.48 0 0 0 0 1 3
156 1 4.45714 11.5886 0.891429 0 0 0 1 2
157 1 6.23616 11.6283 2.72833 -3.72081 5.11663 0.936167 1 1
158 1 4.40024 13.359 2.74084 -5.83272 8.0767 3.15729 1 1
159 1 6.24 13.3714 0.891429 0 0 0 1 2
160 1 5.30212 14.3058 1.81242 -0.29238 -7.57478 -5.14787 1 1
161 1 8.9218 10.7027 1.79348 1.8398 -11.4422 -2.18139 1 1
162 1 7.10645 12.4767 1.76922 -0.891629 -0.470679 6.99832 1 1
163 1 7.13143 10.6971 0 0 0 0 1 3
164 1 8.02286 11.5886 0.891429 0 0 0 1 2
165 1 8.91429 12.48 0 0 0 0 1 3
166 1 9.78861 11.6078 2.72522 2.49783 0.37537 2.63213 1 1
167 1 8.00022 13.3636 2.69329 -0.39687 10.2264 1.21214 1 1
168 1 9.80572 13.3714 0.891429 0 0 0 1 2
169 1 10.681 12.5046 1.77946 -4.42763 -1.50835 -3.53723 1 1
170 1 10.6971 10.6971 0 0 0 0 1 3
171 1 12.48 12.48 0 0 0 0 1 3
172 1 11.5886 11.5886 0.891429 0 0 0 1 2
173 1 13.3608 11.5714 2.68316 -4.99154 -7.92343 4.3886 1 1
174 1 11.5611 13.4094 2.66792 -3.58017 2.4668 -2.89095 1 1
175 1 13.3714 13.3714 0.891429 0 0 0 1 2
176 1 12.4413 14.2786 1.77409 -3.51477 -0.303536 -6.19995 1 1
177 1 14.2681 12.4554 1.77222 -4.15406 -1.67687 -0.171585 1 1
178 1 14.2629 10.6971 0 0 0 0 1 3
179 1 16.0457 12.48 0 0 0 0 1 3
180 1 15.1543 11.5886 0.891429 0 0 0 1 2
181 1 16.9514 11.5619 2.69118 1.86397 -9.1688 1.17528 1 1
182 1 15.1252 13.3708 2.6674 8.80807 -5.2921 3.11895 1 1
183 1 16.9371 13.3714 0.891429 0 0 0 1 2
184 1 17.8182 12.483 1.79912 6.68826 1.53981 12.8595 1 1
185 1 19.6161 10.661 1.76524 -2.09779 -4.68595 4.61721 1 1
186 1 17.8286 10.6971 0 0 0 0 1 3
187 1 19.6114 12.48 0 0 0 0 1 3
188 1 18.72 11.5886 0.891429 0 0 0 1 2
189 1 20.5161 11.5643 2.64812 -2.76749 6.20485 -10.0081 1 1
190 1 18.7263 13.3532 2.70389 -2.03212 -5.11704 -3.97631 1 1
191 1 20.5029 13.3714 0.891429 0 0 0 1 2
192 1 19.6324 14.2363 1.79404 -7.88815 1.6857 4.21177 1 1
193 1 1.8075 14.2336 1.76399 1.14756 4.7481 -2.77029 1 1
194 1 0 14.2629 0 0 0 0 1 3
195 1 1.78286 16.0457 0 0 0 0 1 3
196 1 0.891429 15.1543 0.891429 0 0 0 1 2
197 1 0.893623 16.9182 2.68558 -13.0762 -3.5526 5.40968 1 1
198 1 2.67526 15.145 2.64187 0.566275 -5.08674 0.359097 1 1
199 1 2.67429 16.9371 0.891429 0 0 0 1 2
200 1 21.4185 16.049 1.7733 4.09781 -0.304724 -0.358434 1 1
201 1 3.51656 16.0497 1.77005 -0.348496 0.640375 3.16082 1 1
202 1 3.56572 14.2629 0 0 0 0 1 3
203 1 5.34857 16.0457 0 0 0 0 1 3
204 1 4.45714 15.1543 0.891429 0 0 0 1 2
205 1 4.47064 16.956 2.67576 0.539648 -1.38607 -0.877219 1 1
206 1 6.27277 15.1329 2.69264 1.84188 1.24899 -5.33085 1 1
207 1 6.24 16.9371 0.891429 0 0 0 1 2
208 1 7.13636 16.014 1.7708 -0.520607 1.97669 -3.03125 1 1
209 1 5.35561 17.8487 1.77026 -3.15669 0.781941 -0.866197 1 1
210 1 8.89356 14.293 1.79945 -4.22622 -1.36966 0.201272 1 1
211 1 7.13143 14.2629 0 0 0 0 1 3
212 1 8.02286 15.1543 0.891429 0 0 0 1 2
213 1 8.0772 16.9542 2.64065 -6.88296 -8.34957 2.61802 1 1
214 1 8.91429 16.0457 0 0 0 0 1 3
215 1 9.80905 15.1438 2.67732 1.33421 5.02745 1.55038 1 1
216 1 9.80572 16.9371 0.891429 0 0 0 1 2
217 1 8.91604 17.8293 1.76802 3.34114 -3.47361 -6.1178 1 1
218 1 10.7374 16.0196 1.76565 -8.90443 4.65428 -2.56409 1 1
219 1 10.6971 14.2629 0 0 0 0 1 3
220 1 12.48 16.0457 0 0 0 0 1 3
221 1 11.5886 15.1543 0.891429 0 0 0 1 2
222 1 11.5998 16.899 2.68225 -0.343345 -7.91389 3.63658 1 1
223 1 13.3451 15.1357 2.68228 10.5575 -0.419282 3.32069 1 1
224 1 13.3714 16.9371 0.891429 0 0 0 1 2
225 1 12.4888 17.8281 1.79724 -9.40526 1.7443 -2.93089 1 1
226 1 16.0353 14.2597 1.79061 -2.87355 -5.97647 0.889931 1 1
227 1 14.1963 16.0095 1.76214 -1.53603 4.65164 -3.5021 1 1
228 1 14.2629 14.2629 0 0 0 0 1 3
229 1 16.0457 16.0457 0 0 0 0 1 3
230 1 15.1543 15.1543 0.891429 0 0 0 1 2
231 1 15.1642 16.9178 2.67209 2.69142 2.3583 -4.42628 1 1
232 1 16.9706 15.1241 2.72851 -2.35024 0.816903 -0.223988 1 1
233 1 16.9371 16.9371 0.891429 0 0 0 1 2
234 1 17.7919 16.0319 1.81303 -1.75719 -4.15264 1.37104 1 1
235 1 17.8286 14.2629 0 0 0 0 1 3
236 1 19.6114 16.0457 0 0 0 0 1 3
237 1 18.72 15.1543 0.891429 0 0 0 1 2
238 1 18.699 16.9021 2.65993 2.05955 -4.05522 3.04688 1 1
239 1 20.5285 15.0892 2.64347 1.4866 0.874208 0.873891 1 1
240 1 20.5029 16.9371 0.891429 0 0 0 1 2
241 1 19.6025 17.7724 1.77468 -0.846398 5.41982 2.00081 1 1
242 1 1.82216 17.7976 1.79663 1.4108 4.10735 0.166059 1 1
243 1 0 17.8286 0 0 0 0 1 3
244 1 1.78286 19.6114 0 0 0 0 1 3
245 1 0.891429 18.72 0.891429 0 0 0 1 2
246 1 0.876086 20.5162 2.69784 -0.416073 2.59512 -1.39246 1 1
247 1 2.70457 18.6868 2.72391 -0.335622 -4.43905 4.61722 1 1
248 1 2.67429 20.5029 0.891429 0 0 0 1 2
249 1 3.54889 19.6265 1.79602 10.7837 -2.0323 0.437925 1 1
250 1 21.374 19.6474 1.80286 3.88682 -0.78368 2.67118 1 1
251 1 5.33561 -0.0221705 1.76466 -4.03919 -3.21619 0.0155336 1 1
252 1 3.56572 17.8286 0 0 0 0 1 3
253 1 5.34857 19.6114 0 0 0 0 1 3
254 1 4.45714 18.72 0.891429 0 0 0 1 2
255 1 4.44313 20.5063 2.70822 -2.98804 -2.83726 -2.08692 1 1
256 1 6.25534 18.7053 2.65675 1.44067 -5.57907 0.659021 1 1
257 1 6.24 20.5029 0.891429 0 0 0 1 2
258 1 7.12021 19.6474 1.76558 -5.19424 -0.262561 5.33295 1 1
259 1 7.13143 17.8286 0 0 0 0 1 3
260 1 8.02286 18.72 0.891429 0 0 0 1 2
261 1 8.05412 20.45 2.68268 7.59711 -1.43406 -5.60123 1 1
262 1 8.91429 19.6114 0 0 0 0 1 3
263 1 9.79212 18.7353 2.65685 2.9735 2.95474 4.67867 1 1
264 1 9.80572 20.5029 0.891429 0 0 0 1 2
265 1 10.7316 19.6196 1.8079 -5.84055 3.83089 -2.50365 1 1
266 1 12.5214 0.00894949 1.7667 2.54237 -2.71832 -0.192337 1 1
267 1 10.6971 17.8286 0 0 0 0 1 3
268 1 12.48 19.6114 0 0 0 0 1 3
269 1 11.5886 18.72 0.891429 0 0 0 1 2
270 1 11.5938 20.5097 2.6646 -11.5949 3.47754 9.50899 1 1
271 1 13.3677 18.7528 2.72193 -4.97152 7.41982 -1.58219 1 1
272 1 13.3714 20.5029 0.891429 0 0 0 1 2
273 1 14.2564 19.6143 1.80114 9.83587 1.9638 -3.95012 1 1
274 1 16.0748 17.8263 1.78868 5.14241 4.50035 2.9917 1 1
275 1 14.2629 17.8286 0 0 0 0 1 3
276 1 16.0457 19.6114 0 0 0 0 1 3
277 1 15.1543 18.72 0.891429 0 0 0 1 2
278 1 15.1689 20.4759 2.69271 -6.25604 -2.24031 -14.1824 1 1
279 1 16.9115 18.6994 2.67944 -4.30916 0.297521 1.76236 1 1
280 1 16.9371 20.5029 0.891429 0 0 0 1 2
281 1 19.5711 0.000728987 1.76565 -6.50835 -6.84412 6.92689 1 1
282 1 17.7989 19.6109 1.77541 1.36931 -1.97747 3.17965 1 1
283 1 17.8286 17.8286 0 0 0 0 1 3
284 1 19.6114 19.6114 0 0 0 0 1 3
285 1 18.72 18.72 0.891429 0 0 0 1 2
286 1 18.6895 20.4889 2.64667 8.45819 -6.52537 3.53249 1 1
287 1 20.4688 18.7346 2.7048 -1.77307 -0.255561 -1.71963 1 1
288 1 20.5029 20.5029 0.891429 0 0 0 1 2
289 1 1.75487 1.81797 3.51984 0.840212 6.93839 1.87932 1 1
290 1 0.868001 0.957901 4.46493 4.85001 -0.696979 -1.39618 1 1
291 1 2.67239 2.67493 4.41792 -0.079531 1.90094 1.38664 1 1
292 1 1.81365 0.0211785 5.35176 -2.94305 -1.3584 0.387171 1 1
293 1 1.78174 3.50117 5.35599 -0.896154 7.82813 -1.43353 1 1
294 1 21.41 1.78344 5.35446 -0.185996 2.15712 -2.94187 1 1
295 1 21.3972 0.00381012 3.5981 1.37985 1.72278 -1.73337 1 1
296 1 3.52892 1.77804 5.32503 2.70598 -2.02749 -6.88339 1 1
297 1 5.35723 1.72432 3.57508 -2.77216 -0.0816401 -3.07432 1 1
298 1 4.43545 0.886986 4.44923 -3.27122 2.82775 7.31792 1 1
299 1 6.29091 0.894381 6.229 12.4967 -3.35727 -4.71879 1 1
300 1 6.25524 2.71991 4.4298 -10.8142 0.091873 -0.914672 1 1
301 1 3.55483 0.00259277 3.57042 -0.56109 -5.10854 -0.152374 1 1
302 1 7.15774 -0.0397916 3.57301 2.14417 -1.88203 0.110719 1 1
303 1 5.37203 21.4478 5.3087 5.23981 5.05764 3.92778 1 1
304 1 7.15647 3.56885 3.55119 -1.43186 -6.53578 5.9718 1 1
305 1 7.07537 1.82436 5.32917 5.57049 -0.245686 8.62503 1 1
306 1 8.93277 1.75966 3.58903 3.37139 2.42066 1.19689 1 1
307 1 8.02803 0.881219 4.47888 -2.45857 -4.58477 3.13555 1 1
308 1 8.05786 2.66481 6.20524 3.59047 -2.02297 3.89755 1 1
309 1 9.81725 0.837742 6.22405 3.69272 -8.68561 -2.86779 1 1
310 1 9.8048 2.64236 4.45114 3.74646 -0.463634 -4.67855 1 1
311 1 10.7199 1.76608 5.36172 1.27736 -7.89824 2.74511 1 1
312 1 12.4788 1.79431 3.59915 -2.60197 3.82989 5.33196 1 1
313 1 11.5902 0.904078 4.48707 -5.3147 -8.93018 5.52614 1 1
314 1 11.5549 2.6655 6.27551 -9.7686 -2.04673 0.375232 1 1
315 1 13.3529 2.73176 4.49361 -9.95247 5.6515 -5.19144 1 1
316 1 13.3521 0.853637 6.24763 -6.38283 3.01606 3.45216 1 1
317 1 12.4639 3.62739 5.3403 -7.6936 -12.6308 2.58965 1 1
318 1 14.2467 1.82831 5.42085 -2.19922 -6.34188 -3.58825 1 1
319 1 12.445 21.3727 5.34078 2.95573 2.29281 -2.50615 1 1
320 1 14.2735 3.565 3.59807 -1.01351 -1.07886 -0.0689821 1 1
321 1 16.0424 1.75715 3.60385 2.4519 0.589895 -0.835335 1 1
322 1 15.1567 0.884828 4.47332 3.70454 1.57462 5.94734 1 1
323 1 15.1263 2.68571 6.25886 -3.83384 -13.3901 -2.60752 1 1
324 1 16.9231 2.63788 4.48054 -6.47631 12 -4.82206 1 1
325 1 17.8219 1.737 5.35821 -7.52716 -0.669793 -5.45362 1 1
326 1 15.9878 -0.00952781 5.34993 3.29472 -1.22096 6.74273 1 1
327 1 19.5939 1.71394 3.5504 2.44739 4.46642 0.577462 1 1
328 1 18.7081 0.827735 4.48398 -6.94158 -2.4554 2.89599 1 1
329 1 20.4353 2.60994 4.45876 9.27363 4.62635 3.00097 1 1
330 1 17.8249 21.3753 3.59248 -4.17678 3.82444 0.545613 1 1
331 1 19.6292 21.3333 5.40576 6.18735 0.385966 -3.41672 1 1
332 1 21.4024 3.54541 3.57833 6.44307 5.66108 6.38995 1 1
333 1 1.76012 5.324 3.60571 -6.45078 -0.63603 9.42985 1 1
334 1 0.836164 4.40309 4.4875 4.28625 -0.689679 2.52461 1 1
335 1 2.68567 4.43446 6.24607 -4.58792 -0.748213 4.49059 1 1
336 1 2.67474 6.28762 4.51319 1.6271 -2.77287 4.27639 1 1
337 1 3.56347 3.55412 3.54471 0.720306 -2.2802 3.72883 1 1
338 1 21.3688 5.36465 5.36888 -7.12456 0.0675051 -1.31739 1 1
339 1 3.55164 5.33333 5.3198 8.45904 3.9434 -0.327781 1 1
340 1 5.34021 3.59538 5.28677 1.89207 0.850904 -7.89427 1 1
341 1 5.35097 5.38493 3.52151 4.60532 -0.126565 -3.93455 1 1
342 1 4.38928 4.46527 4.39825 -6.45618 6.33305 -6.49937 1 1
343 1 4.43476 6.19892 6.2999 -7.29319 4.84192 0.362658 1 1
344 1 6.26459 6.26826 4.43159 -1.88603 -0.878466 -1.51057 1 1
345 1 7.17197 5.3594 5.35066 6.57065 1.18932 1.94228 1 1
346 1 5.30624 7.1145 5.36236 5.04809 -0.504192 0.257825 1 1
347 1 6.22128 4.45288 6.20377 -1.976 -1.56905 6.03385 1 1
348 1 8.92439 3.57792 5.32808 2.84037 -11.7435 0.494962 1 1
349 1 10.678 3.56722 3.58386 -2.96726 1.32784 6.14244 1 1
350 1 8.92036 5.34738 3.54724 0.521033 -0.121651 -1.84793 1 1
351 1 8.05902 4.44636 4.44962 -0.49983 0.312194 3.52285 1 1
352 1 8.04561 6.23909 6.25507 -4.37365 5.10319 -4.13796 1 1
353 1 9.82127 4.41149 6.25357 2.22524 -0.869939 0.89795 1 1
354 1 9.78666 6.29701 4.48657 -2.54092 -4.64119 -2.6975 1 1
355 1 10.7103 5.37053 5.36483 5.58413 -8.44881 0.42344 1 1
356 1 12.442 5.41859 3.54646 -3.24031 -0.567969 -0.687637 1 1
357 1 11.6137 4.51427 4.42323 9.45326 -2.36749 1.00307 1 1
358 1 13.3459 6.28396 4.48371 -8.64904 -1.01313 6.31113 1 1
359 1 14.1933 5.33725 5.38163 1.98899 2.58819 -2.67598 1 1
360 1 15.9873 3.59895 5.34678 -3.03305 -6.42311 -7.97929 1 1
361 1 17.7925 3.51679 3.59498 -7.77685 3.87927 2.15789 1 1
362 1 16.0252 5.35481 3.58803 14.2922 6.5722 0.292689 1 1
363 1 15.1272 4.45908 4.47823 4.51721 2.13486 0.189964 1 1
364 1 16.8853 6.20982 4.5006 -1.46688 -4.9224 -0.5996 1 1
365 1 16.9152 4.46308 6.27532 -7.94274 0.996044 -0.772715 1 1
366 1 16.0025 7.10546 5.40093 2.9528 2.04872 6.76399 1 1
367 1 15.0827 6.21933 6.27771 -0.854928 6.93622 1.50876 1 1
368 1 19.569 3.51273 5.38375 -2.33747 4.14339 -9.1457 1 1
369 1 17.7924 5.33406 5.37126 -3.91112 4.59006 7.39957 1 1
370 1 19.5866 5.30771 3.56751 2.9612 4.64395 1.17422 1 1
371 1 18.6843 4.47242 4.43538 -6.38768 4.18525 6.02094 1 1
372 1 20.5069 4.38623 6.28357 -2.5574 4.50229 -11.1847 1 1
373 1 20.4577 6.27864 4.47133 0.386852 3.12448 -2.53302 1 1
374 1 19.572 7.16232 5.40916 0.963747 2.27158 1.87748 1 1
375 1 21.3603 7.12449 3.57834 -1.15399 7.23414 6.45536 1 1
376 1 1.79773 7.13253 5.36418 3.21698 5.55494 -5.51599 1 1
377 1 1.75988 8.88059 3.56557 -0.439854 3.69928 6.99824 1 1
378 1 0.863892 7.99461 4.4659 4.23573 1.10999 -6.01958 1 1
379 1 2.66622 7.95009 6.29339 5.65504 3.72304 -3.50792 1 1
380 1 0.889479 9.80339 6.27444 2.78621 -1.07028 -6.10855 1 1
381 1 2.61085 9.83535 4.48211 2.17911 0.497421 -0.760791 1 1
382 1 21.4201 8.94482 5.37675 2.40437 -6.60156 -0.712011 1 1
383 1 1.75563 10.7456 5.37458 -3.23538 -1.10236 4.68933 1 1
384 1 3.51508 7.13371 3.58173 1.79661 -5.96251 1.39193 1 1
385 1 7.09551 7.14384 3.57418 -0.449222 -2.50002 -1.41928 1 1
386 1 3.5318 10.7037 3.61085 -2.03129 -1.72561 -2.33852 1 1
387 1 3.53124 8.91173 5.38442 10.1261 4.04363 1.15707 1 1
388 1 5.27616 8.92837 3.60185 3.6503 -9.54782 -4.18403 1 1
389 1 4.40605 8.02745 4.51929 1.96237 8.44819 5.24506 1 1
390 1 4.47045 9.77976 6.28861 11.7237 0.0295033 -1.25039 1 1
391 1 6.20612 9.80385 4.44686 -4.22166 2.92582 -1.70712 1 1
392 1 8.91277 7.1872 5.34764 2.54012 4.92836 -4.17138 1 1
393 1 7.10217 8.91465 5.34131 4.2369 -1.9854 -0.383007 1 1
394 1 8.91369 8.93269 3.56735 -2.74214 7.056 -8.96488 1 1
395 1 7.99567 8.06421 4.46116 5.51678 -3.16125 -2.4434 1 1
396 1 9.76111 9.83309 4.44872 0.875408 -6.66595 3.12585 1 1
397 1 10.7017 8.95772 5.37988 3.96811 3.71815 1.37397 1 1
398 1 10.7103 10.7372 3.57362 1.97871 -3.61311 1.06709 1 1
399 1 9.82478 8.03882 6.24775 0.968566 -3.6927 0.490532 1 1
400 1 12.4465 7.15707 5.33195 3.6697 8.60331 5.80952 1 1
401 1 10.6793 7.1398 3.58025 5.60933 -6.04366 -5.71644 1 1
402 1 12.4946 8.95136 3.54729 6.50229 4.82168 2.63825 1 1
403 1 11.6138 8.04862 4.48583 4.30646 -1.2186 -0.245099 1 1
404 1 13.3728 9.78759 4.49321 7.81899 10.6842 -1.10027 1 1
405 1 14.2324 7.16584 3.57377 -3.19685 -5.58405 -0.894816 1 1
406 1 14.2309 8.92503 5.4139 0.964753 -1.4998 3.41505 1 1
407 1 17.8241 7.15225 3.56109 0.795004 4.22224 -5.11014 1 1
408 1 16.0795 8.89296 3.56873 -1.04597 -5.50825 -0.090394 1 1
409 1 15.1439 8.05748 4.48865 2.02344 -2.63257 -0.840613 1 1
410 1 16.9524 9.79752 4.44832 9.54761 2.23302 -3.1424 1 1
411 1 16.0228 10.6466 5.34705 13.0476 -4.71534 -2.76972 1 1
412 1 16.9644 7.99208 6.26034 -0.57521 3.14969 -3.7763 1 1
413 1 17.8392 8.88673 5.34297 1.78908 1.28186 -5.87589 1 1
414 1 19.5868 8.92117 3.60441 1.99342 4.88139 0.465042 1 1
415 1 18.6936 8.00297 4.50976 0.722228 5.52059 -3.68261 1 1
416 1 18.7311 9.76884 6.27794 1.23428 -2.18642 -6.02706 1 1
417 1 20.4932 9.81168 4.54303 -1.53702 -0.809143 4.13516 1 1
418 1 20.4805 8.04008 6.3065 -2.17698 10.8659 -1.44155 1 1
419 1 19.623 10.6741 5.42103 1.57575 -4.79426 -2.2159 1 1
420 1 21.3828 10.6884 3.59402 1.40772 -4.20305 6.36211 1 1
421 1 1.75775 12.4695 3.61577 8.30344 2.20778 -0.283001 1 1
422 1 0.875624 11.5874 4.50272 7.61065 3.3615 -0.602624 1 1
423 1 2.6333 11.6118 6.22263 -4.49131 0.630633 -7.7218 1 1
424 1 0.86645 13.4196 6.237 5.61986 -7.55986 -4.06914 1 1
425 1 2.6424 13.3827 4.47821 -0.393934 -1.79168 -2.14775 1 1
426 1 21.4034 12.4891 5.3697 -4.4999 -6.30923 4.60381 1 1
427 1 5.33058 10.6877 5.35223 -1.69752 5.55366 4.53672 1 1
428 1 3.54257 14.2911 3.57888 -4.1825 7.69451 -2.51514 1 1
429 1 3.55727 12.5294 5.35117 -3.51187 -2.03928 1.56799 1 1
430 1 5.29396 12.4571 3.60571 -0.236706 -4.0843 1.95274 1 1
431 1 4.43474 11.6088 4.47288 11.2577 9.10856 -6.26494 1 1
432 1 6.20286 13.3897 4.4802 -5.17763 -2.49507 -0.864497 1 1
433 1 7.13847 14.2285 3.57922 -9.18581 3.158 -12.4485 1 1
434 1 6.2304 11.6194 6.24798 10.0264 3.66346 -2.69197 1 1
435 1 7.08257 10.7276 3.57609 -2.07312 -0.599927 5.90175 1 1
436 1 7.13562 12.4862 5.36361 -2.70972 1.11355 -6.59326 1 1
437 1 8.87664 10.7192 5.36992 -4.68157 8.77447 4.79856 1 1
438 1 8.85974 12.5272 3.61677 -3.58716 -5.23577 -1.61644 1 1
439 1 7.98167 11.6116 4.50647 8.1945 -2.53779 -4.5652 1 1
440 1 9.77901 11.5552 6.27402 -1.62267 -3.56325 2.99184 1 1
441 1 8.04749 13.3747 6.29336 -5.35847 -0.316392 7.89692 1 1
442 1 9.78945 13.3376 4.4685 -1.81662 16.1824 2.90732 1 1
443 1 10.695 14.2519 3.56184 -3.57915 1.86495 -1.33531 1 1
444 1 12.496 10.683 5.41558 -2.94182 -3.69476 -6.7256 1 1
445 1 10.6618 12.4729 5.42591 -4.59378 2.34636 1.63957 1 1
446 1 12.4974 12.5005 3.5669 3.6684 1.52165 -3.05891 1 1
447 1 11.5726 11.6256 4.50094 3.6575 7.05543 -5.7245 1 1
448 1 13.3635 11.579 6.3084 4.51705 -3.75808 -7.68457 1 1
449 1 11.5726 13.3318 6.29043 5.90021 -4.34313 -5.50194 1 1
450 1 13.3456 13.3935 4.47455 3.44727 -10.2965 -0.207094 1 1
451 1 14.255 10.6721 3.58243 -1.13987 4.68188 -5.31286 1 1
452 1 14.2685 12.471 5.39053 6.51199 -3.72349 -5.09851 1 1
453 1 16.0302 12.4607 3.58291 2.40548 -0.492547 7.69392 1 1
454 1 15.1508 11.5393 4.46075 4.61424 -3.4177 4.7334 1 1
455 1 16.8996 11.5807 6.27138 6.38296 5.56418 -2.10733 1 1
456 1 16.9337 13.3252 4.50487 6.09565 -10.7615 -4.12418 1 1
457 1 17.7731 12.4588 5.4051 3.50754 -3.45833 4.64867 1 1
458 1 15.1595 13.3369 6.29943 -4.15023 -1.56083 -8.15914 1 1
459 1 17.8699 10.6869 3.57002 -2.08723 -4.47991 -0.681375 1 1
460 1 19.6204 12.4338 3.59177 2.17012 1.70153 -5.04376 1 1
461 1 18.6977 11.5566 4.51564 -1.85119 -2.7219 -6.09492 1 1
462 1 18.6784 13.3742 6.28056 1.65747 -4.16169 -0.912501 1 1
463 1 20.4355 13.3378 4.52442 3.31902 -5.99366 8.29849 1 1
464 1 20.4686 11.5965 6.29039 -3.43654 -5.59465 1.39796 1 1
465 1 1.75475 14.2543 5.38517 -0.899373 3.60943 -6.51077 1 1
466 1 1.81266 15.993 3.60486 -0.476299 -5.47734 -2.32771 1 1
467 1 0.898094 15.1419 4.49289 -5.66699 6.5804 -2.00943 1 1
468 1 2.66804 15.1511 6.22473 5.20006 -4.07233 -1.75613 1 1
469 1 2.64314 16.9055 4.53765 0.169503 -1.78692 -0.903406 1 1
470 1 21.3865 16.0366 5.36658 2.05001 -2.62238 -2.0778 1 1
471 1 -0.000332534 14.2166 3.61916 -1.68326 0.763282 5.49391 1 1
472 1 1.76645 17.8101 5.37743 -1.31663 3.8656 -3.02604 1 1
473 1 5.33145 14.3005 5.37602 4.74696 -1.85044 0.25998 1 1
474 1 3.57231 16.0818 5.38005 -3.18284 11.0127 2.46211 1 1
475 1 5.35721 16.0867 3.59799 -3.29857 -6.16112 -2.59241 1 1
476 1 4.45084 15.1799 4.44918 -10.9959 0.218153 -8.26128 1 1
477 1 4.46907 16.9584 6.26129 3.4995 -5.07445 1.00288 1 1
478 1 6.23143 15.1616 6.24029 -6.90166 0.788255 0.34662 1 1
479 1 6.21813 17.0004 4.50259 -2.75158 -5.04742 -6.08616 1 1
480 1 7.1745 16.0579 5.37839 6.50131 -0.469815 -0.834686 1 1
481 1 8.93739 14.236 5.39352 -3.8051 -0.857605 -2.01834 1 1
482 1 8.87981 16.0118 3.59893 8.54014 6.37476 5.46495 1 1
483 1 8.02528 15.152 4.48148 3.90072 6.41767 3.85612 1 1
484 1 8.03223 16.9651 6.25475 0.589469 -4.42821 -3.50295 1 1
485 1 9.78019 15.1762 6.27204 1.69017 -5.49681 2.41687 1 1
486 1 9.8039 16.8899 4.48307 -7.61149 1.84251 5.79047 1 1
487 1 10.662 16.0335 5.38847 -0.47504 1.09008 -6.04096 1 1
488 1 8.91054 17.8369 5.32889 -1.57199 2.69069 2.85218 1 1
489 1 10.7086 17.8 3.53965 -2.65414 1.23003 -0.316704 1 1
490 1 12.4613 14.2152 5.3919 4.10608 -1.7073 -7.77378 1 1
491 1 12.4745 16.0295 3.59367 1.16366 8.52785 3.62853 1 1
492 1 11.5578 15.0959 4.51566 2.41645 -0.756337 5.33753 1 1
493 1 11.6142 16.9115 6.28402 -0.457233 3.63154 -3.9518 1 1
494 1 13.3903 16.9099 4.44353 5.23814 3.95236 5.72627 1 1
495 1 13.3806 15.1287 6.26956 1.03996 6.24778 4.08377 1 1
496 1 12.5008 17.7847 5.32711 -1.33469 -5.00061 3.34556 1 1
497 1 14.229 14.2632 3.5264 -4.00552 -4.67133 6.75477 1 1
498 1 15.9963 14.2314 5.39642 5.90192 4.1948 -5.60529 1 1
499 1 17.8436 14.2469 3.53886 2.36497 -1.23938 -4.28847 1 1
500 1 14.2568 16.0313 5.34421 -6.33988 7.99267 -7.99183 1 1
501 1 14.321 17.8042 3.57178 -4.62798 3.18732 -1.46875 1 1
502 1 16.0993 16.0044 3.57398 2.67417 -1.2632 -0.106283 1 1
503 1 15.1832 15.1418 4.49029 5.79125 3.12917 6.32899 1 1
504 1 16.9552 16.9228 4.45106 2.07982 -4.33681 6.45982 1 1
505 1 16.9159 15.1441 6.28699 10.1525 -4.76047 -2.24372 1 1
506 1 17.8357 16.0495 5.33908 2.20554 4.21876 -1.06538 1 1
507 1 19.5966 14.2081 5.36316 -9.34423 -5.6346 -4.66907 1 1
508 1 19.6087 16.0132 3.53593 -8.4074 -4.63246 0.0931317 1 1
509 1 18.7049 15.1003 4.45253 -1.74475 -4.22179 -0.509043 1 1
510 1 20.4742 16.9088 4.54606 0.664274 -2.25665 5.23317 1 1
511 1 19.6044 17.8432 5.39708 2.51451 0.678856 3.05414 1 1
512 1 20.5003 15.1676 6.29071 5.89522 -2.47862 2.1542 1 1
513 1 1.79739 19.6168 3.62665 2.58989 -5.11712 -9.89762 1 1
514 1 0.903626 18.7208 4.49171 1.1947 -5.60717 2.98746 1 1
515 1 0.926908 20.5486 6.22806 6.71499 5.7988 -0.786991 1 1
516 1 2.69736 20.5507 4.49352 1.56221 -0.495172 2.97626 1 1
517 1 21.3753 17.8205 3.57986 2.74798 -5.50763 -5.25027 1 1
518 1 0.0231155 19.6377 5.35985 -4.10722 -5.74196 -7.23195 1 1
519 1 2.68438 18.7336 6.25255 5.8679 1.89739 -2.94138 1 1
520 1 5.34236 17.8323 5.36941 0.0742278 7.23101 -1.88333 1 1
521 1 3.594 17.8375 3.63302 3.76405 -0.879344 0.621556 1 1
522 1 3.55298 19.6248 5.3776 -4.02718 4.60925 6.33536 1 1
523 1 5.38044 19.5955 3.55963 5.02861 4.66534 3.16526 1 1
524 1 4.49192 18.7292 4.50917 0.812191 3.93632 -2.11066 1 1
525 1 4.51099 20.542 6.24794 6.50563 -3.46674 6.27328 1 1
526 1 6.26435 18.7355 6.28203 -4.61672 -2.36368 7.89983 1 1
527 1 6.19627 20.5015 4.46552 0.313897 -9.01217 8.88454 1 1
528 1 7.16055 17.8567 3.58709 5.04965 0.646337 -4.12942 1 1
529 1 7.08862 19.6378 5.37849 0.167817 -3.82835 7.2202 1 1
530 1 8.89924 -0.0342345 5.35654 -2.22844 -0.774269 3.53101 1 1
531 1 8.9344 19.5885 3.55309 -7.15079 0.00861185 1.20905 1 1
532 1 8.00055 18.7514 4.43304 -4.07171 2.38404 -3.81309 1 1
533 1 8.03619 20.5171 6.24249 -5.87716 2.15929 4.05015 1 1
534 1 9.78762 18.7252 6.21019 -9.06076 9.79575 -1.11525 1 1
535 1 9.80445 20.4665 4.43103 0.288999 -6.61219 -7.88927 1 1
536 1 10.6994 19.555 5.32229 -4.3743 -4.49776 2.14269 1 1
537 1 10.6864 21.4003 3.5804 4.46015 4.53469 -2.14114 1 1
538 1 12.4894 19.6024 3.55424 -5.17492 8.90635 -1.4061 1 1
539 1 11.5831 18.6851 4.43965 5.19499 2.15207 -0.21886 1 1
540 1 13.3653 18.7017 6.17896 1.48382 1.10693 -5.7169 1 1
541 1 13.3863 20.488 4.44826 -1.65989 0.784434 -0.504166 1 1
542 1 16.0477 17.8115 5.32725 -3.02489 0.961343 -2.38129 1 1
543 1 14.2688 21.3754 3.56746 -14.5491 3.78471 7.95678 1 1
544 1 14.2599 19.5614 5.2903 -0.396037 -1.09721 -5.04694 1 1
545 1 16.0553 19.6206 3.57425 -2.69573 2.06997 -5.43213 1 1
546 1 15.2176 18.71 4.47055 -4.16654 -8.44121 -1.19996 1 1
547 1 16.9225 18.734 6.26626 -5.19399 2.13804 6.49567 1 1
548 1 16.9367 20.4827 4.48569 -3.26857 7.53485 -4.49491 1 1
549 1 17.8167 19.6033 5.36844 4.38338 1.6301 -3.27226 1 1
550 1 17.8338 17.8074 3.53911 3.43499 -3.66866 -0.79476 1 1
551 1 19.6333 19.5885 3.57018 1.23723 0.472268 -3.1973 1 1
552 1 18.7234 18.7024 4.47892 -0.793566 1.88208 2.09712 1 1
553 1 18.7213 20.4938 6.26574 -9.23465 -5.37539 1.21098 1 1
554 1 20.5504 18.7245 6.25442 1.0879 2.056 -1.63341 1 1
555 1 20.5246 20.4894 4.49394 -7.59282 1.65869 -0.735609 1 1
556 1 2.70196 0.889745 6.24792 -6.40086 6.3463 1.76033 1 1