ITEM: TIMESTEP
700
ITEM: NUMBER OF ATOMS
2953
ITEM: BOX BOUNDS pp pp mm
0.0000000000000000e+00 2.1394294200000001e+01
0.0000000000000000e+00 2.1394294200000001e+01
-4.4571446250000002e-01 5.3485735500000004e+01
ITEM: ATOMS id type x y z vx vy vz v_is_diamond c_structure_type
1 1 0 0 0 0 0 0 1 3
2 1 21.3639 1.80678 1.79519 5.85127 -7.9022 8.87901 1 1
3 1 1.78081 0.0168503 1.77321 4.02035 0.193122 -4.53393 1 1
4 1 1.78286 1.78286 0 0 0 0 1 3
5 1 0.891429 0.891429 0.891429 0 0 0 1 2
6 1 0.88767 2.64636 2.73655 -5.87932 1.47652 -0.0795933 1 1
7 1 2.68461 0.875497 2.69268 -8.48218 0.482743 3.29855 1 1
8 1 2.67429 2.67429 0.891429 0 0 0 1 2
9 1 3.56572 0 0 0 0 0 1 3
10 1 3.55581 1.7744 1.79343 1.10238 -6.15307 -2.60588 1 1
11 1 5.37014 0.0120898 1.74301 0.153979 -8.02957 -2.86256 1 1
12 1 5.34857 1.78286 0 0 0 0 1 3
13 1 4.45714 0.891429 0.891429 0 0 0 1 2
14 1 4.44774 2.72823 2.63518 6.236 -0.360121 1.03801 1 1
15 1 6.23504 0.896202 2.72243 8.80068 -5.09792 -1.04017 1 1
16 1 6.24 2.67429 0.891429 0 0 0 1 2
17 1 7.13143 0 0 0 0 0 1 3
18 1 7.14136 1.80033 1.82961 11.4392 -3.07927 2.15794 1 1
19 1 8.90274 21.3682 1.83581 -0.123269 6.79758 6.45867 1 1
20 1 8.91429 1.78286 0 0 0 0 1 3
21 1 8.02286 0.891429 0.891429 0 0 0 1 2
22 1 8.04405 2.6913 2.73693 4.92557 1.44642 4.6774 1 1
23 1 9.81486 0.897594 2.69283 0.22417 2.24435 8.96673 1 1
24 1 9.80572 2.67429 0.891429 0 0 0 1 2
25 1 10.6971 0 0 0 0 0 1 3
26 1 10.6997 1.81081 1.79505 5.53772 -0.437676 0.896453 1 1
27 1 12.5076 0.00175612 1.78272 -4.65432 0.338598 -0.709205 1 1
28 1 12.48 1.78286 0 0 0 0 1 3
29 1 11.5886 0.891429 0.891429 0 0 0 1 2
30 1 11.6404 2.69361 2.68713 -1.57834 -3.52837 0.520783 1 1
31 1 13.3454 0.90122 2.6361 -3.98011 -1.74021 -9.49114 1 1
32 1 13.3714 2.67429 0.891429 0 0 0 1 2
33 1 14.2629 0 0 0 0 0 1 3
34 1 14.2917 1.77812 1.76019 1.13226 8.30064 -0.474084 1 1
35 1 16.0676 21.3806 1.76879 0.365263 3.05735 -2.54449 1 1
36 1 16.0457 1.78286 0 0 0 0 1 3
37 1 15.1543 0.891429 0.891429 0 0 0 1 2
38 1 15.1144 2.66112 2.67238 2.86023 4.01728 -2.35466 1 1
39 1 16.9619 0.908577 2.69189 -1.31323 2.22445 -1.77453 1 1
40 1 16.9371 2.67429 0.891429 0 0 0 1 2
41 1 17.8286 0 0 0 0 0 1 3
42 1 17.8504 1.7994 1.81751 1.48176 0.122501 0.852205 1 1
43 1 19.6354 21.3835 1.81965 -6.92578 -0.969294 -8.53125 1 1
44 1 19.6114 1.78286 0 0 0 0 1 3
45 1 18.72 0.891429 0.891429 0 0 0 1 2
46 1 18.6982 2.66859 2.66769 1.76289 1.98769 -1.84762 1 1
47 1 20.5146 0.904376 2.72537 5.88111 -12.7396 7.06811 1 1
48 1 20.5029 2.67429 0.891429 0 0 0 1 2
49 1 0 3.56572 0 0 0 0 1 3
50 1 21.3907 5.3351 1.81705 -4.28682 2.35883 0.367733 1 1
51 1 1.74805 3.54702 1.80476 0.712014 -4.24311 3.64857 1 1
52 1 1.78286 5.34857 0 0 0 0 1 3
53 1 0.891429 4.45714 0.891429 0 0 0 1 2
54 1 0.898199 6.24929 2.68929 -2.35269 2.88772 -0.300662 1 1
55 1 2.65672 4.44351 2.69795 2.68533 -6.48246 -9.59161 1 1
56 1 2.67429 6.24 0.891429 0 0 0 1 2
57 1 3.56572 3.56572 0 0 0 0 1 3
58 1 3.55375 5.34646 1.80317 -2.71845 6.42889 2.45431 1 1
59 1 5.36726 3.56489 1.779 2.0582 1.7136 -5.75641 1 1
60 1 5.34857 5.34857 0 0 0 0 1 3
61 1 4.45714 4.45714 0.891429 0 0 0 1 2
62 1 4.4813 6.22019 2.68823 -1.4834 3.65192 3.26418 1 1
63 1 6.24032 4.41946 2.69751 2.78571 -4.06654 1.49314 1 1
64 1 6.24 6.24 0.891429 0 0 0 1 2
65 1 7.13143 3.56572 0 0 0 0 1 3
66 1 7.14824 5.32469 1.81839 0.428951 2.90954 -1.02234 1 1
67 1 8.89132 3.54089 1.76974 2.97037 3.38659 -7.55502 1 1
68 1 8.91429 5.34857 0 0 0 0 1 3
69 1 8.02286 4.45714 0.891429 0 0 0 1 2
70 1 8.01127 6.23175 2.69212 0.679007 -4.65839 2.1827 1 1
71 1 9.80335 4.45751 2.71065 -2.08358 -0.971298 -0.120373 1 1
72 1 9.80572 6.24 0.891429 0 0 0 1 2
73 1 10.6971 3.56572 0 0 0 0 1 3
74 1 10.6859 5.38189 1.78213 -7.41057 3.2965 -0.772281 1 1
75 1 12.5085 3.58922 1.79409 -3.219 0.603058 2.97107 1 1
76 1 12.48 5.34857 0 0 0 0 1 3
77 1 11.5886 4.45714 0.891429 0 0 0 1 2
78 1 11.5943 6.25312 2.6934 9.5483 -6.79294 -9.28689 1 1
79 1 13.3496 4.49612 2.72631 -0.818471 8.08206 -0.827295 1 1
80 1 13.3714 6.24 0.891429 0 0 0 1 2
81 1 14.2629 3.56572 0 0 0 0 1 3
82 1 14.2473 5.3429 1.8133 -3.70262 -2.02824 1.20792 1 1
83 1 16.0313 3.57716 1.79304 2.5842 1.12399 -3.91474 1 1
84 1 16.0457 5.34857 0 0 0 0 1 3
85 1 15.1543 4.45714 0.891429 0 0 0 1 2
86 1 15.1107 6.26086 2.69053 -6.09702 -0.34776 8.40839 1 1
87 1 16.8966 4.45407 2.70051 -10.0282 8.55768 -4.3029 1 1
88 1 16.9371 6.24 0.891429 0 0 0 1 2
89 1 17.8286 3.56572 0 0 0 0 1 3
90 1 17.8296 5.30327 1.79805 3.10823 2.71719 5.41143 1 1
91 1 19.6123 3.58186 1.7984 1.80702 1.87278 7.59225 1 1
92 1 19.6114 5.34857 0 0 0 0 1 3
93 1 18.72 4.45714 0.891429 0 0 0 1 2
94 1 18.667 6.218 2.73113 -1.21744 1.31807 0.828802 1 1
95 1 20.506 4.48407 2.66598 -0.272907 2.43443 -2.16388 1 1
96 1 20.5029 6.24 0.891429 0 0 0 1 2
97 1 0 7.13143 0 0 0 0 1 3
98 1 21.3613 8.9461 1.82846 -4.3341 0.222918 -0.537883 1 1
99 1 1.78622 7.15638 1.78355 2.00559 3.75984 0.724604 1 1
100 1 1.78286 8.91429 0 0 0 0 1 3
101 1 0.891429 8.02286 0.891429 0 0 0 1 2
102 1 0.904819 9.82296 2.71524 0.97469 1.05936 -4.06239 1 1
103 1 2.68038 8.08222 2.66114 -1.44665 -0.551605 10.2003 1 1
104 1 2.67429 9.80572 0.891429 0 0 0 1 2
105 1 3.56572 7.13143 0 0 0 0 1 3
106 1 3.57282 8.96535 1.73796 1.57579 4.68589 3.76075 1 1
107 1 5.35955 7.14185 1.75665 -8.0342 -1.08162 -1.1583 1 1
108 1 5.34857 8.91429 0 0 0 0 1 3
109 1 4.45714 8.02286 0.891429 0 0 0 1 2
110 1 4.43764 9.80228 2.62528 3.84406 8.36495 7.11691 1 1
111 1 6.25223 7.982 2.67033 -1.23118 1.30942 -12.9399 1 1
112 1 6.24 9.80572 0.891429 0 0 0 1 2
113 1 7.13143 7.13143 0 0 0 0 1 3
114 1 7.12521 8.9376 1.76718 -1.11668 7.15377 6.01794 1 1
115 1 8.90102 7.14058 1.80034 6.76759 0.584667 -2.21608 1 1
116 1 8.91429 8.91429 0 0 0 0 1 3
117 1 8.02286 8.02286 0.891429 0 0 0 1 2
118 1 8.00833 9.7981 2.65678 -10.4865 3.25199 5.55799 1 1
119 1 9.82771 8.04553 2.73193 9.84444 1.96416 4.77036 1 1
120 1 9.80572 9.80572 0.891429 0 0 0 1 2
121 1 10.6971 7.13143 0 0 0 0 1 3
122 1 10.7311 8.90242 1.81128 2.72274 3.3626 -2.94912 1 1
123 1 12.457 7.154 1.7585 0.506493 6.2359 0.928579 1 1
124 1 12.48 8.91429 0 0 0 0 1 3
125 1 11.5886 8.02286 0.891429 0 0 0 1 2
126 1 11.594 9.79661 2.6825 -2.53514 8.28674 -9.18638 1 1
127 1 13.3329 8.03491 2.68901 -1.24241 -1.6009 0.500162 1 1
128 1 13.3714 9.80572 0.891429 0 0 0 1 2
129 1 14.2629 7.13143 0 0 0 0 1 3
130 1 14.2399 8.91913 1.82903 2.73294 3.14532 -1.11225 1 1
131 1 16.0123 7.14678 1.81342 -2.60299 -0.0351098 2.08398 1 1
132 1 16.0457 8.91429 0 0 0 0 1 3
133 1 15.1543 8.02286 0.891429 0 0 0 1 2
134 1 15.2115 9.78466 2.70553 3.25905 1.60533 -2.7486 1 1
135 1 16.8964 8.00043 2.74505 3.21662 -8.79646 -5.3723 1 1
136 1 16.9371 9.80572 0.891429 0 0 0 1 2
137 1 17.8286 7.13143 0 0 0 0 1 3
138 1 17.8109 8.88852 1.80704 1.25611 1.69065 -4.10688 1 1
139 1 19.5759 7.11735 1.79051 6.45613 -3.74843 2.63486 1 1
140 1 19.6114 8.91429 0 0 0 0 1 3
141 1 18.72 8.02286 0.891429 0 0 0 1 2
142 1 18.7317 9.87614 2.68067 -8.73654 2.23782 7.5147 1 1
143 1 20.5163 8.02828 2.68893 2.51741 -3.71751 5.37662 1 1
144 1 20.5029 9.80572 0.891429 0 0 0 1 2
145 1 0 10.6971 0 0 0 0 1 3
146 1 21.3773 12.489 1.8062 3.52082 -7.1864 -11.3561 1 1
147 1 1.79265 10.6745 1.7848 4.16343 -2.12148 3.03813 1 1
148 1 1.78286 12.48 0 0 0 0 1 3
149 1 0.891429 11.5886 0.891429 0 0 0 1 2
150 1 0.895346 13.3874 2.69688 -2.60745 -5.89069 -2.26898 1 1
151 1 2.69842 11.5912 2.7153 2.82978 -3.84653 2.05574 1 1
152 1 2.67429 13.3714 0.891429 0 0 0 1 2
153 1 3.56572 10.6971 0 0 0 0 1 3
154 1 3.6136 12.4602 1.82 3.48907 1.46781 -8.54451 1 1
155 1 5.33344 10.7198 1.75907 11.7736 2.12546 2.29061 1 1
156 1 5.34857 12.48 0 0 0 0 1 3
157 1 4.45714 11.5886 0.891429 0 0 0 1 2
158 1 4.47955 13.3663 2.67703 1.49129 -13.1335 -2.19165 1 1
159 1 6.24394 11.6049 2.74447 -5.0162 -3.27765 4.96985 1 1
160 1 6.24 13.3714 0.891429 0 0 0 1 2
161 1 7.13143 10.6971 0 0 0 0 1 3
162 1 7.17366 12.494 1.78665 3.78201 8.90132 12.3227 1 1
163 1 8.89854 10.6938 1.7682 0.194717 1.77251 -2.37976 1 1
164 1 8.91429 12.48 0 0 0 0 1 3
165 1 8.02286 11.5886 0.891429 0 0 0 1 2
166 1 8.06395 13.3683 2.64675 1.9426 -1.3967 4.63321 1 1
167 1 9.80161 11.6086 2.67882 1.03983 -0.919736 2.02819 1 1
168 1 9.80572 13.3714 0.891429 0 0 0 1 2
169 1 10.6971 10.6971 0 0 0 0 1 3
170 1 10.7513 12.4716 1.8064 -3.702 0.476768 14.2141 1 1
171 1 12.4908 10.6944 1.78513 3.91755 -4.30248 2.10255 1 1
172 1 12.48 12.48 0 0 0 0 1 3
173 1 11.5886 11.5886 0.891429 0 0 0 1 2
174 1 11.5902 13.3452 2.70318 1.33384 0.439406 8.53913 1 1
175 1 13.3753 11.5878 2.67437 4.0726 6.84038 4.77662 1 1
176 1 13.3714 13.3714 0.891429 0 0 0 1 2
177 1 14.2629 10.6971 0 0 0 0 1 3
178 1 14.2403 12.489 1.78029 0.974865 -6.12573 -2.12546 1 1
179 1 16.0614 10.6937 1.80861 -8.43688 -1.05183 1.92063 1 1
180 1 16.0457 12.48 0 0 0 0 1 3
181 1 15.1543 11.5886 0.891429 0 0 0 1 2
182 1 15.1488 13.3438 2.65905 -1.48311 4.44604 6.8708 1 1
183 1 16.9239 11.5788 2.6668 -2.32025 5.97219 -1.41346 1 1
184 1 16.9371 13.3714 0.891429 0 0 0 1 2
185 1 17.8286 10.6971 0 0 0 0 1 3
186 1 17.8619 12.4824 1.79781 -3.31066 -1.06979 2.28203 1 1
187 1 19.5943 10.7043 1.7851 -2.04327 1.97975 -0.800784 1 1
188 1 19.6114 12.48 0 0 0 0 1 3
189 1 18.72 11.5886 0.891429 0 0 0 1 2
190 1 18.6886 13.4109 2.74148 2.59316 5.58311 1.25792 1 1
191 1 20.4996 11.5662 2.70409 -2.70406 -3.90532 -0.841742 1 1
192 1 20.5029 13.3714 0.891429 0 0 0 1 2
193 1 0 14.2629 0 0 0 0 1 3
194 1 0.0143062 16.0713 1.79846 3.96331 -6.09323 11.3777 1 1
195 1 1.74753 14.295 1.81186 -0.52839 2.5446 -0.347158 1 1
196 1 1.78286 16.0457 0 0 0 0 1 3
197 1 0.891429 15.1543 0.891429 0 0 0 1 2
198 1 0.958159 16.9586 2.70423 -4.21187 -0.778114 9.61345 1 1
199 1 2.67893 15.1569 2.71499 -2.31251 -2.3109 2.41555 1 1
200 1 2.67429 16.9371 0.891429 0 0 0 1 2
201 1 3.56572 14.2629 0 0 0 0 1 3
202 1 3.52809 16.0121 1.78259 -9.57071 6.75597 -4.3658 1 1
203 1 5.33586 14.279 1.75235 -10.4621 -3.35171 -2.18862 1 1
204 1 5.34857 16.0457 0 0 0 0 1 3
205 1 4.45714 15.1543 0.891429 0 0 0 1 2
206 1 4.42901 16.9278 2.63961 -4.31757 -2.60964 -1.43932 1 1
207 1 6.26621 15.1652 2.65872 -5.37151 8.70828 0.519494 1 1
208 1 6.24 16.9371 0.891429 0 0 0 1 2
209 1 7.13143 14.2629 0 0 0 0 1 3
210 1 7.13564 16.0406 1.78778 -1.33295 -3.82509 4.92597 1 1
211 1 8.95781 14.2538 1.7801 1.69819 3.03991 -1.93388 1 1
212 1 8.91429 16.0457 0 0 0 0 1 3
213 1 8.02286 15.1543 0.891429 0 0 0 1 2
214 1 8.03341 16.9053 2.64451 2.28605 -2.25014 7.89659 1 1
215 1 9.85854 15.1502 2.67296 2.04677 -0.933134 5.94006 1 1
216 1 9.80572 16.9371 0.891429 0 0 0 1 2
217 1 10.6971 14.2629 0 0 0 0 1 3
218 1 10.7009 16.0635 1.77088 4.88119 -2.77327 -8.34569 1 1
219 1 12.4683 14.2569 1.84443 0.480219 -1.81966 0.535236 1 1
220 1 12.48 16.0457 0 0 0 0 1 3
221 1 11.5886 15.1543 0.891429 0 0 0 1 2
222 1 11.6016 16.9155 2.693 -0.824921 -7.07735 1.6193 1 1
223 1 13.3667 15.1977 2.70182 -1.6791 2.57404 -0.525724 1 1
224 1 13.3714 16.9371 0.891429 0 0 0 1 2
225 1 14.2629 14.2629 0 0 0 0 1 3
226 1 14.2711 16.058 1.80859 1.09884 -4.88902 4.53254 1 1
227 1 16.0526 14.2915 1.80293 2.45645 7.05065 -5.19396 1 1
228 1 16.0457 16.0457 0 0 0 0 1 3
229 1 15.1543 15.1543 0.891429 0 0 0 1 2
230 1 15.1246 16.9807 2.67466 -0.868815 7.64399 -5.06451 1 1
231 1 16.9278 15.1629 2.6723 0.394112 -7.56836 -0.780089 1 1
232 1 16.9371 16.9371 0.891429 0 0 0 1 2
233 1 17.8286 14.2629 0 0 0 0 1 3
234 1 17.8568 16.023 1.77605 10.1097 -1.91164 2.21032 1 1
235 1 19.6033 14.2448 1.84304 -4.99172 -5.77941 1.19743 1 1
236 1 19.6114 16.0457 0 0 0 0 1 3
237 1 18.72 15.1543 0.891429 0 0 0 1 2
238 1 18.7937 16.9126 2.67766 0.39566 -0.727557 8.56656 1 1
239 1 20.5069 15.2008 2.6924 2.37526 -0.445436 8.94555 1 1
240 1 20.5029 16.9371 0.891429 0 0 0 1 2
241 1 0 17.8286 0 0 0 0 1 3
242 1 0.004614 19.6602 1.80399 -1.3263 -6.89369 8.51719 1 1
243 1 1.82225 17.8358 1.78066 1.60467 6.37455 -9.0988 1 1
244 1 1.78286 19.6114 0 0 0 0 1 3
245 1 0.891429 18.72 0.891429 0 0 0 1 2
246 1 0.948649 20.5199 2.68087 -1.04002 -1.08313 -2.28253 1 1
247 1 2.67689 18.7171 2.67376 0.557179 -2.59125 -1.213 1 1
248 1 2.67429 20.5029 0.891429 0 0 0 1 2
249 1 3.56572 17.8286 0 0 0 0 1 3
250 1 3.56542 19.6223 1.80362 -1.78445 -1.14487 8.92152 1 1
251 1 5.34588 17.8133 1.77518 -3.50897 -8.13379 -3.11018 1 1
252 1 5.34857 19.6114 0 0 0 0 1 3
253 1 4.45714 18.72 0.891429 0 0 0 1 2
254 1 4.39892 20.5238 2.65027 12.8416 -2.33803 -3.80298 1 1
255 1 6.23016 18.7084 2.70433 -3.17524 5.8097 -0.0771648 1 1
256 1 6.24 20.5029 0.891429 0 0 0 1 2
257 1 7.13143 17.8286 0 0 0 0 1 3
258 1 7.14692 19.6086 1.80288 -4.1095 3.77173 1.68042 1 1
259 1 8.94328 17.8203 1.7164 4.11231 -4.8232 -3.4946 1 1
260 1 8.91429 19.6114 0 0 0 0 1 3
261 1 8.02286 18.72 0.891429 0 0 0 1 2
262 1 7.93152 20.5008 2.72612 -0.0773909 -0.17834 -1.63835 1 1
263 1 9.79033 18.7218 2.65496 -3.31805 -5.62532 1.53184 1 1
264 1 9.80572 20.5029 0.891429 0 0 0 1 2
265 1 10.6971 17.8286 0 0 0 0 1 3
266 1 10.7238 19.5801 1.78557 -6.8293 4.36086 -1.64207 1 1
267 1 12.514 17.7877 1.7904 -6.32312 -10.2038 0.0887219 1 1
268 1 12.48 19.6114 0 0 0 0 1 3
269 1 11.5886 18.72 0.891429 0 0 0 1 2
270 1 11.6101 20.4821 2.70422 4.09628 -4.62719 -9.17907 1 1
271 1 13.3791 18.6965 2.70372 5.16091 -2.94093 0.7278 1 1
272 1 13.3714 20.5029 0.891429 0 0 0 1 2
273 1 14.2629 17.8286 0 0 0 0 1 3
274 1 14.2799 19.62 1.81001 -2.12053 2.03383 -1.41169 1 1
275 1 16.0311 17.8288 1.80833 -2.34013 4.28629 -1.93796 1 1
276 1 16.0457 19.6114 0 0 0 0 1 3
277 1 15.1543 18.72 0.891429 0 0 0 1 2
278 1 15.166 20.4503 2.70609 -0.0881787 -4.63265 -0.36116 1 1
279 1 16.9395 18.7 2.7096 -1.87295 -0.0406603 -1.47499 1 1
280 1 16.9371 20.5029 0.891429 0 0 0 1 2
281 1 17.8286 17.8286 0 0 0 0 1 3
282 1 17.8414 19.6238 1.78769 0.848461 -1.33158 1.57029 1 1
283 1 19.6365 17.8427 1.78482 3.77644 -10.3967 3.95891 1 1
284 1 19.6114 19.6114 0 0 0 0 1 3
285 1 18.72 18.72 0.891429 0 0 0 1 2
286 1 18.7573 20.5033 2.70047 0.938049 -6.40273 3.8556 1 1
287 1 20.519 18.7286 2.67599 -2.13469 4.47861 2.13911 1 1
288 1 20.5029 20.5029 0.891429 0 0 0 1 2
289 1 0.0118079 0.0261724 3.62978 -4.02332 6.25395 -6.07905 1 1
290 1 0.0045031 1.77749 5.4283 1.2696 -0.903863 6.73968 1 1
291 1 1.80275 21.3861 5.4178 0.672512 6.19287 3.62849 1 1
292 1 1.8039 1.82569 3.57971 0.677187 -4.39255 3.19081 1 1
293 1 0.890888 0.915912 4.52287 1.1938 -10.3014 0.89263 1 1
294 1 0.88064 2.67368 6.27612 -0.516345 3.97989 0.53322 1 1
295 1 2.63268 0.925254 6.31131 7.82291 1.87904 1.63219 1 1
296 1 2.67977 2.65036 4.50827 1.07203 0.824537 -4.88031 1 1
297 1 3.54627 0.0140213 3.56559 11.1349 -1.75462 10.3054 1 1
298 1 3.5817 1.78719 5.39694 -0.5451 2.2067 -1.46655 1 1
299 1 5.31859 21.3942 5.34537 11.3962 6.85095 0.0846436 1 1
300 1 5.36834 1.77845 3.60645 -1.96071 -0.627737 -0.000553861 1 1
301 1 4.42241 0.932878 4.53293 -5.6678 4.14699 -0.273522 1 1
302 1 4.47293 2.63948 6.32845 9.64243 6.35741 -0.855057 1 1
303 1 6.21193 0.88263 6.28418 -6.02096 1.46459 0.593239 1 1
304 1 6.23435 2.7001 4.54082 -3.1757 7.57387 -1.49545 1 1
305 1 7.09973 0.0258268 3.56931 -1.2422 2.30886 3.57628 1 1
306 1 7.12607 1.76373 5.4116 5.05844 -0.0548356 0.39701 1 1
307 1 8.85881 21.3708 5.40791 4.11517 -7.71189 -1.09262 1 1
308 1 8.9359 1.82411 3.59943 0.961851 2.58967 6.62943 1 1
309 1 8.04228 0.9018 4.52559 1.84006 2.53676 8.51242 1 1
310 1 8.04446 2.67306 6.29844 -9.41902 3.06554 -0.152578 1 1
311 1 9.76937 0.8852 6.28956 2.83919 4.21041 -3.18953 1 1
312 1 9.80157 2.6904 4.50735 2.81221 1.68032 6.66077 1 1
313 1 10.6793 21.3741 3.59457 4.77405 -4.00666 3.11665 1 1
314 1 10.6984 1.74962 5.4114 6.56889 -3.374 7.97271 1 1
315 1 12.4504 21.3845 5.39582 6.33177 4.7481 4.71039 1 1
316 1 12.4662 1.77412 3.57294 8.38102 1.44175 3.85324 1 1
317 1 11.5628 0.913154 4.4817 6.65647 -0.078751 6.87979 1 1
318 1 11.5766 2.64308 6.29793 -2.15523 -3.20302 -7.52868 1 1
319 1 13.3945 0.842592 6.28263 6.35814 -4.6968 -4.50944 1 1
320 1 13.3557 2.65491 4.48948 -4.48082 -0.0914667 4.22122 1 1
321 1 14.304 21.3699 3.58029 1.24123 0.0209299 4.64693 1 1
322 1 14.2956 1.78124 5.34359 -6.17398 1.16925 -1.68896 1 1
323 1 16.0456 0.0105705 5.35987 7.88272 1.4429 6.20902 1 1
324 1 16.0146 1.83854 3.59605 -7.61815 2.65838 3.32108 1 1
325 1 15.1611 0.900986 4.45549 -2.3093 -4.0635 0.45033 1 1
326 1 15.1324 2.66684 6.30098 2.8622 1.06847 0.121483 1 1
327 1 16.9428 0.895173 6.30377 1.23514 6.64316 1.78656 1 1
328 1 16.9289 2.72394 4.49283 5.81039 2.17272 -0.493914 1 1
329 1 17.8213 0.0283051 3.59749 -0.161344 0.754492 9.04318 1 1
330 1 17.8113 1.77786 5.37302 -5.53464 14.7134 3.63346 1 1
331 1 19.5948 0.0211892 5.34855 -1.17954 0.465764 5.60901 1 1
332 1 19.6031 1.80388 3.56409 -2.75005 2.52818 8.33527 1 1
333 1 18.693 0.886926 4.4897 -3.90037 -1.06405 -11.3494 1 1
334 1 18.7301 2.69397 6.30407 -2.34855 -2.24006 3.96145 1 1
335 1 20.4616 0.885776 6.3246 0.145845 1.70003 3.24845 1 1
336 1 20.5007 2.67448 4.52312 3.40167 2.04839 1.41049 1 1
337 1 0.0355087 3.55522 3.61894 -4.53563 0.452482 1.7582 1 1
338 1 0.021838 5.32996 5.381 -2.82162 -4.01251 2.86801 1 1
339 1 1.82469 3.55924 5.39731 1.56233 0.583944 2.36512 1 1
340 1 1.79643 5.33266 3.59807 3.7045 3.4316 3.16048 1 1
341 1 0.941892 4.46916 4.49564 -0.298355 6.67083 3.85714 1 1
342 1 0.913953 6.22372 6.32234 1.03312 6.03494 3.06956 1 1
343 1 2.68942 4.45339 6.29632 4.57941 1.43846 0.277841 1 1
344 1 2.72945 6.24982 4.50066 -4.94104 -9.45739 2.94969 1 1
345 1 3.57521 3.56836 3.53527 -5.45073 2.27946 -6.66474 1 1
346 1 3.59161 5.35281 5.39389 -9.44187 -2.37698 -6.2268 1 1
347 1 5.34481 3.58043 5.41752 3.48317 0.154442 -0.0716274 1 1
348 1 5.39707 5.34095 3.59045 0.854176 1.43887 1.89445 1 1
349 1 4.47472 4.46298 4.46156 -2.7665 -3.39446 -8.66025 1 1
350 1 4.51659 6.27485 6.27265 4.01338 -5.43353 -3.2712 1 1
351 1 6.24841 4.46876 6.25692 0.238583 -5.01415 2.77721 1 1
352 1 6.25255 6.24677 4.47984 4.63629 9.43414 -1.96628 1 1
353 1 7.16379 3.56309 3.62197 1.49614 -2.77627 2.70166 1 1
354 1 7.18378 5.36538 5.40411 -6.8559 -0.178044 5.60503 1 1
355 1 8.92333 3.59344 5.40075 -2.54756 -0.52389 1.90076 1 1
356 1 8.9187 5.35121 3.63107 6.56852 -2.45113 -4.05961 1 1
357 1 7.98842 4.47092 4.54214 1.15854 -3.51442 3.49793 1 1
358 1 8.02189 6.27073 6.30333 -0.173723 1.55322 -2.93711 1 1
359 1 9.79815 4.45025 6.30885 -0.23641 2.10351 -6.16328 1 1
360 1 9.7826 6.26041 4.47376 4.73357 -0.0751682 4.82067 1 1
361 1 10.7043 3.56426 3.578 -8.73571 4.51112 0.416171 1 1
362 1 10.7078 5.33873 5.41294 -0.306495 -4.00736 1.51726 1 1
363 1 12.4823 3.55204 5.38825 4.46549 3.56814 -5.89068 1 1
364 1 12.4775 5.4264 3.66001 2.94723 -10.16 4.68256 1 1
365 1 11.596 4.47926 4.48347 5.09483 6.11113 -0.533443 1 1
366 1 11.569 6.2652 6.29029 7.69572 4.60498 4.42455 1 1
367 1 13.3193 4.43711 6.30643 -7.78474 -3.42355 -0.621535 1 1
368 1 13.3659 6.22486 4.5243 -3.36341 0.118221 0.0523421 1 1
369 1 14.2649 3.53077 3.59456 5.86044 1.12253 -0.0204231 1 1
370 1 14.2196 5.3187 5.40743 0.357482 -2.65835 4.34693 1 1
371 1 16.0284 3.57444 5.3851 -8.61731 0.880439 -5.70407 1 1
372 1 16.0423 5.31908 3.58546 4.79695 4.49435 0.973533 1 1
373 1 15.0753 4.44317 4.4918 -3.19346 5.22366 -4.18886 1 1
374 1 15.1229 6.21598 6.26435 -8.71606 -5.73704 -11.9242 1 1
375 1 16.9014 4.49082 6.26985 -3.46291 -6.66466 -3.9498 1 1
376 1 16.9139 6.23586 4.50882 -1.23695 -1.26439 -0.23262 1 1
377 1 17.8313 3.56759 3.53428 -0.105777 1.70864 8.38504 1 1
378 1 17.8324 5.30645 5.3994 2.72644 -1.78331 2.24476 1 1
379 1 19.6045 3.55241 5.41352 5.85652 12.458 6.89066 1 1
380 1 19.592 5.37106 3.61062 -5.86046 1.06047 0.697951 1 1
381 1 18.7222 4.43416 4.45037 -5.78249 -4.43883 5.95603 1 1
382 1 18.7301 6.23116 6.30987 -1.35121 4.82887 5.3452 1 1
383 1 20.4972 4.44125 6.26714 -3.99502 9.66397 -8.23192 1 1
384 1 20.5819 6.28764 4.53062 -6.02899 3.45294 3.41181 1 1
385 1 0.0311956 7.17359 3.60964 -0.887748 -1.23289 -6.51669 1 1
386 1 0.0294835 8.91204 5.38248 6.2288 0.252409 -4.87871 1 1
387 1 1.83167 7.15904 5.40424 3.93486 4.33822 8.05004 1 1
388 1 1.81731 8.94079 3.60244 -3.80539 1.99109 -3.05434 1 1
389 1 0.954663 8.05489 4.50744 2.59837 -3.16997 3.19305 1 1
390 1 0.89792 9.8124 6.25599 5.0697 6.41223 1.84651 1 1
391 1 2.707 8.04199 6.2895 -4.26338 4.70366 -1.39076 1 1
392 1 2.7319 9.79349 4.48704 11.8128 4.25565 0.0968178 1 1
393 1 3.63443 7.168 3.58157 -2.65727 -5.25551 -7.15099 1 1
394 1 3.60103 8.91113 5.3648 8.33762 -6.25272 -1.16055 1 1
395 1 5.42198 7.12854 5.38853 3.26045 -2.46453 2.52803 1 1
396 1 5.39025 8.90304 3.54692 0.432482 3.68346 1.88027 1 1
397 1 4.50003 8.05042 4.50727 5.60767 6.92567 6.46913 1 1
398 1 4.50302 9.81867 6.28164 -5.11399 3.75123 -1.86539 1 1
399 1 6.27285 8.00883 6.30049 -2.44069 -0.657164 2.27079 1 1
400 1 6.27511 9.8567 4.47079 -7.08789 2.21561 2.46966 1 1
401 1 7.12944 7.14868 3.56363 -5.94723 5.21976 2.61023 1 1
402 1 7.11275 8.94328 5.39418 7.29364 5.93956 2.79514 1 1
403 1 8.91535 7.13225 5.37129 4.03302 3.42249 10.4117 1 1
404 1 8.91403 8.92374 3.61951 -1.02867 -1.43298 -0.595724 1 1
405 1 7.99831 8.01718 4.47444 -3.62465 -1.05985 -1.67915 1 1
406 1 8.01345 9.82529 6.32502 -3.92777 -5.45576 -0.0510039 1 1
407 1 9.79546 8.00776 6.24193 -0.405926 6.16353 3.41206 1 1
408 1 9.79478 9.79734 4.5234 -3.60993 0.203741 0.672552 1 1
409 1 10.7292 7.13959 3.60456 1.08231 -2.09616 -0.926166 1 1
410 1 10.6809 8.91912 5.39569 -0.479886 6.09968 0.26408 1 1
411 1 12.44 7.12145 5.41323 4.63989 1.2495 4.68145 1 1
412 1 12.473 8.91409 3.6123 1.57685 -4.67299 7.37744 1 1
413 1 11.6148 8.04331 4.50834 2.85469 0.306485 8.56606 1 1
414 1 11.5937 9.81608 6.27914 0.321259 1.6313 4.69728 1 1
415 1 13.344 8.04523 6.30008 -1.61847 3.6313 -1.67172 1 1
416 1 13.3911 9.84413 4.48539 6.28683 6.93244 3.07403 1 1
417 1 14.2605 7.11551 3.60176 -5.59906 4.28128 -2.12874 1 1
418 1 14.2496 8.88812 5.43837 -0.350702 1.44275 0.124222 1 1
419 1 16.0505 7.07805 5.36546 1.87582 0.104584 -3.32212 1 1
420 1 16.0831 8.88055 3.61317 -0.823632 2.06514 -1.37776 1 1
421 1 15.1265 7.99107 4.5049 -0.665729 -0.0910408 3.51738 1 1
422 1 15.1433 9.79462 6.30669 4.75585 -7.40935 1.70365 1 1
423 1 16.93 7.98815 6.25171 -3.60051 1.461 0.674339 1 1
424 1 16.934 9.80923 4.45948 -7.36391 1.81218 -1.96442 1 1
425 1 17.7877 7.14538 3.62813 -8.44181 14.644 8.162 1 1
426 1 17.8405 8.91147 5.34366 1.64649 -9.12412 5.18278 1 1
427 1 19.645 7.08542 5.3934 -5.06684 -9.79731 -0.99252 1 1
428 1 19.6376 8.88079 3.62529 4.95408 -0.342693 2.59887 1 1
429 1 18.748 7.98294 4.47481 4.58976 3.96803 -3.15858 1 1
430 1 18.7077 9.78185 6.2417 1.79455 -0.211361 1.16081 1 1
431 1 20.5228 8.0322 6.26243 5.27015 1.08686 -0.0156427 1 1
432 1 20.4961 9.81758 4.48164 2.64174 -5.55806 3.11073 1 1
433 1 21.3795 10.6758 3.58877 -2.2448 -3.05874 6.17068 1 1
434 1 21.3722 12.5049 5.36955 3.47328 -1.27403 4.71902 1 1
435 1 1.78575 10.6561 5.33487 -6.94427 -2.14445 6.52958 1 1
436 1 1.77629 12.4354 3.56241 6.01294 -1.11088 -2.78015 1 1
437 1 0.882396 11.562 4.43417 -0.762958 1.41495 -0.0445902 1 1
438 1 0.885401 13.3723 6.27525 2.66498 -5.97044 1.68388 1 1
439 1 2.67408 11.5774 6.24749 4.73595 1.36584 7.94175 1 1
440 1 2.72734 13.3322 4.48877 -6.64149 9.29614 5.39044 1 1
441 1 3.58488 10.6892 3.5962 3.78324 -4.03317 -2.97335 1 1
442 1 3.59009 12.4358 5.38241 -5.23935 0.865403 2.96076 1 1
443 1 5.40308 10.721 5.33284 3.64244 2.78864 1.74775 1 1
444 1 5.3537 12.5121 3.56918 2.8325 8.11221 5.80388 1 1
445 1 4.52 11.5666 4.48866 -2.14895 2.46079 0.979627 1 1
446 1 4.51172 13.4068 6.29859 3.91563 -4.4427 4.01866 1 1
447 1 6.21839 11.6347 6.21919 -3.69251 1.86766 1.56042 1 1
448 1 6.24189 13.3921 4.47085 3.16399 8.01959 -3.15403 1 1
449 1 7.15198 10.7554 3.57785 5.95211 -3.88249 -2.80503 1 1
450 1 7.15268 12.4825 5.38464 1.95151 -6.9004 -2.50729 1 1
451 1 8.93204 10.7049 5.41706 -0.71507 5.85129 7.07196 1 1
452 1 8.92136 12.4747 3.60006 1.71474 6.48613 6.72884 1 1
453 1 8.02748 11.5885 4.47469 5.76007 4.90312 1.57761 1 1
454 1 8.01879 13.3773 6.25178 2.96646 -2.97867 3.07595 1 1
455 1 9.82492 11.578 6.29951 1.79153 0.245269 -3.214 1 1
456 1 9.824 13.3604 4.49968 -7.4486 2.76263 1.81767 1 1
457 1 10.6903 10.6775 3.62253 0.272091 -7.5347 -3.57151 1 1
458 1 10.7274 12.4898 5.38465 3.29461 5.01216 4.37362 1 1
459 1 12.4454 10.7266 5.36756 2.42563 3.89145 -7.11718 1 1
460 1 12.4934 12.498 3.59038 3.28697 9.76661 4.34687 1 1
461 1 11.5953 11.6055 4.46882 -1.82229 -3.64163 2.76984 1 1
462 1 11.6241 13.3723 6.27845 1.87364 -4.62646 2.88949 1 1
463 1 13.3999 11.5416 6.26522 3.46192 -3.98801 -0.953513 1 1
464 1 13.4201 13.3685 4.48828 -2.35269 3.73077 -7.69621 1 1
465 1 14.3238 10.7083 3.60137 -0.121727 5.97177 9.02404 1 1
466 1 14.3056 12.4415 5.38606 -1.92533 2.98217 -5.98604 1 1
467 1 16.0483 10.7149 5.41268 -0.216107 -1.1684 0.0195287 1 1
468 1 16.0372 12.4632 3.56751 -6.9304 -6.43465 5.75752 1 1
469 1 15.1917 11.5735 4.48822 -5.10348 2.3299 3.30658 1 1
470 1 15.2269 13.368 6.27827 -7.80634 2.81304 -1.68841 1 1
471 1 16.9424 11.6082 6.33472 -3.08022 3.85402 -2.13088 1 1
472 1 16.9427 13.4064 4.46706 10.0986 5.10934 -5.93675 1 1
473 1 17.8355 10.7293 3.62276 0.578068 1.1116 1.9564 1 1
474 1 17.8267 12.5091 5.39049 -8.09541 -4.17673 0.517969 1 1
475 1 19.5849 10.6794 5.38111 3.25678 -8.69475 6.47688 1 1
476 1 19.6181 12.509 3.64484 4.87177 -1.46555 3.02638 1 1
477 1 18.7216 11.5903 4.49719 4.56158 -4.46359 -2.35807 1 1
478 1 18.7205 13.3979 6.31396 -7.15798 4.88118 -8.10883 1 1
479 1 20.4879 11.5785 6.26663 2.77603 5.68256 3.88564 1 1
480 1 20.5189 13.3965 4.50491 9.38849 4.84619 0.188089 1 1
481 1 0.0147021 14.2736 3.6169 -0.920721 0.927289 3.58877 1 1
482 1 21.3876 16.0824 5.45295 -0.893277 7.07701 -2.31913 1 1
483 1 1.79732 14.2613 5.41342 1.18282 5.28654 -2.14441 1 1
484 1 1.77942 16.0911 3.57728 -2.47931 -4.96569 5.30558 1 1
485 1 0.920597 15.185 4.50811 5.69876 11.921 -5.95072 1 1
486 1 0.901774 16.9421 6.31922 -0.236317 -8.90116 -0.045947 1 1
487 1 2.72189 15.1376 6.30366 -7.1679 -4.38977 -4.1705 1 1
488 1 2.70122 16.9407 4.48595 9.89102 0.193954 -0.977617 1 1
489 1 3.57507 14.293 3.61088 3.12226 -4.72446 5.78188 1 1
490 1 3.59673 16.0524 5.36286 -3.90098 -0.858773 5.507 1 1
491 1 5.36521 14.301 5.34389 1.51426 1.86538 -2.40961 1 1
492 1 5.3326 16.0987 3.57337 3.4457 4.45904 9.06153 1 1
493 1 4.4444 15.2 4.45047 6.20837 1.47727 -0.598392 1 1
494 1 4.52392 16.9343 6.29512 3.93792 8.75545 1.08857 1 1
495 1 6.30196 15.1984 6.27836 6.05382 5.21343 4.94368 1 1
496 1 6.25929 16.9677 4.43749 -5.49255 -1.20896 1.21789 1 1
497 1 7.12858 14.26 3.52398 -2.02144 -1.84113 1.56602 1 1
498 1 7.15737 16.0689 5.34033 0.174176 1.85811 -2.81093 1 1
499 1 8.87908 14.2342 5.34162 -3.44071 3.85029 0.627712 1 1
500 1 8.92002 16.0621 3.50646 -0.0686749 1.30833 -3.7844 1 1
501 1 8.0395 15.175 4.46028 -5.33945 -3.06408 -1.17099 1 1
502 1 8.00515 16.9452 6.26238 -1.25045 10.1876 0.725902 1 1
503 1 9.80389 15.1153 6.24343 3.30931 2.48043 -2.47837 1 1
504 1 9.76347 16.8984 4.47147 0.846259 -3.76522 -2.90655 1 1
505 1 10.6844 14.2238 3.59088 -6.36447 -2.16691 4.97549 1 1
506 1 10.627 16.0319 5.32792 1.20928 -2.66336 1.25209 1 1
507 1 12.5127 14.2585 5.36899 5.05122 1.69258 -1.84751 1 1
508 1 12.4871 16.0655 3.58176 -4.28724 2.56379 10.4955 1 1
509 1 11.6279 15.1549 4.4574 2.97975 1.59716 -2.91483 1 1
510 1 11.5466 16.9308 6.21761 0.898991 -0.911554 -4.89749 1 1
511 1 13.3989 15.1381 6.28849 8.53208 5.00996 -0.866031 1 1
512 1 13.3674 16.9725 4.49844 -2.44659 0.638896 1.18261 1 1
513 1 14.2722 14.2312 3.54204 4.87276 2.34348 14.9969 1 1
514 1 14.3293 16.0628 5.37659 5.04082 -1.14194 -1.14672 1 1
515 1 16.0447 14.3053 5.39542 7.02071 0.144908 -4.12478 1 1
516 1 16.0734 16.0866 3.54447 4.7925 -1.66265 5.5229 1 1
517 1 15.201 15.1532 4.43299 -3.94753 3.82118 -1.44064 1 1
518 1 15.1623 16.9483 6.27354 -1.64947 6.20389 2.50122 1 1
519 1 16.9262 15.2167 6.3103 7.89171 2.32302 -3.65469 1 1
520 1 16.9241 16.9749 4.49915 -4.08422 -5.90244 -3.32516 1 1
521 1 17.7926 14.3301 3.62192 -0.303073 -0.0394052 -1.57659 1 1
522 1 17.8035 16.0446 5.40745 1.57259 7.76957 -2.03333 1 1
523 1 19.5913 14.2403 5.38184 1.94801 3.32774 -3.96338 1 1
524 1 19.6662 16.065 3.61135 -9.54741 -1.93015 3.60899 1 1
525 1 18.7293 15.1632 4.53072 0.0645623 4.40817 -0.0583169 1 1
526 1 18.7009 16.9256 6.2908 0.943553 -0.168273 4.66266 1 1
527 1 20.4815 15.1131 6.29162 2.08344 -5.84742 -9.45004 1 1
528 1 20.5616 16.9689 4.52584 -0.524395 -8.18238 3.7815 1 1
529 1 0.0221687 17.8429 3.57174 -2.48467 3.65883 -0.94901 1 1
530 1 0.0509192 19.6475 5.36723 -0.960684 -0.837544 11.059 1 1
531 1 1.77018 17.8009 5.37305 -1.69447 2.21023 -3.68823 1 1
532 1 1.80007 19.6581 3.59387 -2.32746 -2.53492 -1.98854 1 1
533 1 0.92937 18.7364 4.46921 7.543 -3.53885 7.22179 1 1
534 1 0.945575 20.5164 6.30984 11.774 -0.631414 -4.58509 1 1
535 1 2.66278 18.6926 6.24234 -1.50532 1.17807 -5.3629 1 1
536 1 2.65956 20.5266 4.5041 -3.76087 -9.60981 -1.46807 1 1
537 1 3.57123 17.8379 3.55265 5.48046 -1.08312 -0.663037 1 1
538 1 3.55698 19.6175 5.38658 3.58386 -8.82276 -3.94092 1 1
539 1 5.36836 17.8775 5.36806 -4.81126 9.08155 1.3071 1 1
540 1 5.32707 19.6507 3.55192 -1.08398 3.74184 -1.56566 1 1
541 1 4.44683 18.768 4.44369 2.65765 1.95529 -1.10512 1 1
542 1 4.4463 20.5004 6.29525 3.69269 2.22507 -6.9378 1 1
543 1 6.20163 18.7344 6.28196 -0.165407 4.21972 -3.14099 1 1
544 1 6.21274 20.4824 4.44243 -11.6696 0.0546753 -3.44433 1 1
545 1 7.15979 17.8183 3.57796 -6.80923 4.232 0.347303 1 1
546 1 7.06257 19.6129 5.36016 -1.35306 -8.7017 8.38874 1 1
547 1 8.8937 17.8214 5.37942 -3.31027 -1.15911 -1.85309 1 1
548 1 8.86029 19.6232 3.61684 -1.63879 -6.00835 -6.62083 1 1
549 1 7.98941 18.7239 4.50438 1.07375 0.34818 -6.48311 1 1
550 1 7.93776 20.4869 6.28209 -1.35261 3.79772 -6.27516 1 1
551 1 9.78319 18.748 6.2418 2.37957 -6.80371 -4.90416 1 1
552 1 9.76291 20.5011 4.50171 -4.69862 -1.68942 -2.90288 1 1
553 1 10.7018 17.8328 3.53952 -3.07483 -3.29951 -1.46948 1 1
554 1 10.694 19.6263 5.37202 0.525282 3.06355 6.01716 1 1
555 1 12.4713 17.8369 5.38053 -3.10137 -3.65175 -6.73645 1 1
556 1 12.4541 19.5818 3.57717 -9.27497 4.31218 -5.51197 1 1
557 1 11.579 18.721 4.45826 4.2246 -3.95574 -0.139657 1 1